chemcompute.org
{'UTCtimestamp': '2022-10-04T21:16:48.922037', 'cluster': 'jetstream2', 'clusterJobNumber': '120806', 'status': 'RUNNING', 'nodeList': 'chemcompute-node-1'}
----- GAMESS execution script 'rungms' -----
This job is running on host chemcompute-node-1.novalocal
under operating system Linux at Tue Oct 4 21:16:52 UTC 2022
SLURM has assigned the following compute nodes to this run:
Available scratch disk space (Kbyte units) at beginning of the job is
Filesystem     1K-blocks     Used Available Use% Mounted on
/dev/sda1       62903276 11059296  51843980  18% /
GAMESS temporary binary files will be written to /scratch/120806
GAMESS supplementary output files will be written to /data/slurm/46/460763
Copying input file 460763.inp to your run's scratch directory...
The generated host list is
chemcompute-node-1.novalocal

 Distributed Data Interface kickoff program.
 Initiating 1 compute processes on 1 nodes to run the following command:
 /data/gamess-2019R1-avx2-ddi/gamess.00.x 460763 

          ******************************************************
          *         GAMESS VERSION = 30 JUN 2019 (R1)          *
          *             FROM IOWA STATE UNIVERSITY             *
          * M.W.SCHMIDT, K.K.BALDRIDGE, J.A.BOATZ, S.T.ELBERT, *
          *   M.S.GORDON, J.H.JENSEN, S.KOSEKI, N.MATSUNAGA,   *
          *          K.A.NGUYEN, S.J.SU, T.L.WINDUS,           *
          *       TOGETHER WITH M.DUPUIS, J.A.MONTGOMERY       *
          *         J.COMPUT.CHEM.  14, 1347-1363(1993)        *
          **************** 64 BIT INTEL VERSION ****************

  SINCE 1993, STUDENTS AND POSTDOCS WORKING AT IOWA STATE UNIVERSITY
  AND ALSO IN THEIR VARIOUS JOBS AFTER LEAVING ISU HAVE MADE IMPORTANT
  CONTRIBUTIONS TO THE CODE:
     IVANA ADAMOVIC, CHRISTINE AIKENS, YURI ALEXEEV, POOJA ARORA,
     ANDREY ASADCHEV, ROB BELL, PRADIPTA BANDYOPADHYAY, JONATHAN BENTZ,
     COLLEEN BERTONI, BRETT BODE, KURT BRORSEN, CALEB CARLIN, GALINA CHABAN,
     WEI CHEN, CHEOL HO CHOI, PAUL DAY, ALBERT DEFUSCO, NUWAN DESILVA,
     TIM DUDLEY, DMITRI FEDOROV, ALEX FINDLATER, GRAHAM FLETCHER, 
     MARK FREITAG, KURT GLAESEMANN, ANASTASIA GUNINA,
     DAN KEMP, GRANT MERRILL, NORIYUKI MINEZAWA, JONATHAN MULLIN,
     TAKESHI NAGATA, SEAN NEDD, HEATHER NETZLOFF, BOSILJKA NJEGIC, RYAN OLSON,
     MIKE PAK, BUU PHAM,
     SPENCER PRUITT, LUKE ROSKOP, JIM SHOEMAKER, LYUDMILA SLIPCHENKO,
     TONY SMITH, SAROM SOK LEANG, JIE SONG, TETSUYA TAKETSUGU, SIMON WEBB,
     PENG XU, SOOHAENG YOO, FEDERICO ZAHARIEV

  ADDITIONAL CODE HAS BEEN PROVIDED BY COLLABORATORS IN OTHER GROUPS:
     IOWA STATE UNIVERSITY:
          JOE IVANIC, AARON WEST, LAIMUTIS BYTAUTAS, KLAUS RUEDENBERG
     UNIVERSITY OF TOKYO: KIMIHIKO HIRAO, TAKAHITO NAKAJIMA,
          TAKAO TSUNEDA, MUNEAKI KAMIYA, SUSUMU YANAGISAWA,
          KIYOSHI YAGI, MAHITO CHIBA, SEIKEN TOKURA, NAOAKI KAWAKAMI
     UNIVERSITY OF AARHUS: FRANK JENSEN
     UNIVERSITY OF IOWA: VISVALDAS KAIRYS, HUI LI
     NATIONAL INST. OF STANDARDS AND TECHNOLOGY: WALT STEVENS, DAVID GARMER
     UNIVERSITY OF PISA: BENEDETTA MENNUCCI, JACOPO TOMASI
     UNIVERSITY OF MEMPHIS: HENRY KURTZ, PRAKASHAN KORAMBATH
     UNIVERSITY OF ALBERTA: TOBY ZENG, MARIUSZ KLOBUKOWSKI
     UNIVERSITY OF NEW ENGLAND: MARK SPACKMAN
     MIE UNIVERSITY: HIROAKI UMEDA
     NAT. INST. OF ADVANCED INDUSTRIAL SCIENCE AND TECHNOLOGY: KAZUO KITAURA
     MICHIGAN STATE UNIVERSITY:
          KAROL KOWALSKI, MARTA WLOCH, JEFFREY GOUR, JESSE LUTZ,
          WEI LI, JUN SHEN, J. EMILIANO DEUSTUA, PIOTR PIECUCH
     UNIVERSITY OF MINNESOTA:
          YINAN SHU
     UNIVERSITY OF SILESIA: MONIKA MUSIAL, STANISLAW KUCHARSKI
     FACULTES UNIVERSITAIRES NOTRE-DAME DE LA PAIX:
          OLIVIER QUINET, BENOIT CHAMPAGNE
     UNIVERSITY OF CALIFORNIA - SANTA BARBARA: BERNARD KIRTMAN
     INSTITUTE FOR MOLECULAR SCIENCE:
          KAZUYA ISHIMURA, MICHIO KATOUDA, AND SHIGERU NAGASE
     UNIVERSITY OF NOTRE DAME: ANNA POMOGAEVA, DAN CHIPMAN
     KYUSHU UNIVERSITY:
          HARUYUKI NAKANO,
          FENG LONG GU, JACEK KORCHOWIEC, MARCIN MAKOWSKI, AND YURIKO AOKI,
          HIROTOSHI MORI AND EISAKU MIYOSHI
     PENNSYLVANIA STATE UNIVERSITY:
          TZVETELIN IORDANOV, CHET SWALINA, JONATHAN SKONE,
          SHARON HAMMES-SCHIFFER
     WASEDA UNIVERSITY:
          MASATO KOBAYASHI, TOMOKO AKAMA, TSUGUKI TOUMA,
          TAKESHI YOSHIKAWA, YASUHIRO IKABATA, JUNJI SEINO,
          YUYA NAKAJIMA, HIROMI NAKAI
     NANJING UNIVERSITY: SHUHUA LI
     UNIVERSITY OF NEBRASKA:
          PEIFENG SU, DEJUN SI, NANDUN THELLAMUREGE, YALI WANG, HUI LI
     UNIVERSITY OF ZURICH: ROBERTO PEVERATI, KIM BALDRIDGE
     N. COPERNICUS UNIVERSITY AND JACKSON STATE UNIVERSITY:
          MARIA BARYSZ
     UNIVERSITY OF COPENHAGEN: Jimmy Kromann, CASPER STEINMANN
     TOKYO INSTITUTE OF TECHNOLOGY: HIROYA NAKATA
     NAGOYA UNIVERSITY: YOSHIO NISHIMOTO, STEPHAN IRLE
     MOSCOW STATE UNIVERSITY: VLADIMIR MIRONOV
     A.N.NESMEYANOV INSTITUTE OF ORGANOELEMENT COMPOUNDS OF RUSSIAN ACADEMY OF SCIENCES:
          IGOR S. GERASIMOV

 EXECUTION OF GAMESS BEGUN Tue Oct  4 21:16:52 2022

            ECHO OF THE FIRST FEW INPUT CARDS -
 INPUT CARD>!                                                                               
 INPUT CARD>!   GAMESS Calculation input file                                               
 INPUT CARD>!                                                                               
 INPUT CARD>!                                                                               
 INPUT CARD> $CONTRL SCFTYP=RHF MAXIT=200 RUNTYP=OPTIMIZE                                   
 INPUT CARD>         COORD=UNIQUE MULT=1                                                    
 INPUT CARD>         ICHARG=0                                                               
 INPUT CARD>         DFTTYP=B3LYP                                                           
 INPUT CARD>         MOLPLT=.FALSE. PLTORB=.FALSE.  $END                                    
 INPUT CARD> $SYSTEM TIMLIM=2879 MWORDS=250  $END                                           
 INPUT CARD>                                                                                
 INPUT CARD> $FORCE METHOD=SEMINUM NVIB=2 $END                                              
 INPUT CARD> $STATPT OPTTOL=0.0005 NSTEP=999 $END                                           
 INPUT CARD> $STATPT IHREP=0 HSSEND=.TRUE.  $END                                            
 INPUT CARD>                                                                                
 INPUT CARD> $DFT    METHOD=GRID  NLEB=590  $END                                            
 INPUT CARD>                                                                                
 INPUT CARD> $BASIS  GBASIS=N31 NGAUSS=6                                                    
 INPUT CARD>         NDFUNC=1   NPFUNC=0  $END                                              
 INPUT CARD>                                                                                
 INPUT CARD> $SCF    DIRSCF=.T. $END                                                        
 INPUT CARD> $GUESS  GUESS=HUCKEL  $END                                                     
 INPUT CARD>                                                                                
 INPUT CARD> $DATA                                                                          
 INPUT CARD>                                                                                
 INPUT CARD>  C1                                                                            
 INPUT CARD>O     8.0    -1.67864     0.28365     0.17841                                   
 INPUT CARD>C     6.0    -0.63859    -0.32035    -0.05335                                   
 INPUT CARD>C     6.0     0.67137     0.36840    -0.06160                                   
 INPUT CARD>C     6.0     1.81526    -0.32765    -0.08380                                   
 INPUT CARD>H     1.0    -0.62117    -1.40190    -0.25921                                   
 INPUT CARD>H     1.0     0.64623     1.45439    -0.03635                                   
 INPUT CARD>H     1.0     1.84131    -1.41491    -0.08841                                   
 INPUT CARD>H     1.0     2.77057     0.18991    -0.08117                                   
 INPUT CARD> $END                                                                           
 INPUT CARD>                                                                                
 INPUT CARD>                                                                                
 INPUT CARD>! Customizations after this line are persisted when using Do More Calculations  
  250000000 WORDS OF MEMORY AVAILABLE

     BASIS OPTIONS
     -------------
     GBASIS=N31          IGAUSS=       6      POLAR=POPN31  
     NDFUNC=       1     NFFUNC=       0     DIFFSP=       F
     NPFUNC=       0      DIFFS=       F     BASNAM=        


     RUN TITLE
     ---------
                                                                                 

 THE POINT GROUP OF THE MOLECULE IS C1      
 THE ORDER OF THE PRINCIPAL AXIS IS     0

 ATOM      ATOMIC                      COORDINATES (BOHR)
           CHARGE         X                   Y                   Z
 O           8.0    -3.1721696320        0.5360207764        0.3371460135
 C           6.0    -1.2067601185       -0.6053737202       -0.1008168814
 C           6.0     1.2687053364        0.6961750539       -0.1164071208
 C           6.0     3.4303439965       -0.6191687199       -0.1583590378
 H           1.0    -1.1738410918       -2.6492068622       -0.4898358733
 H           1.0     1.2211976250        2.7483985793       -0.0686915397
 H           1.0     3.4795713585       -2.6737921973       -0.1670706746
 H           1.0     5.2356181298        0.3588778623       -0.1533890584

          INTERNUCLEAR DISTANCES (ANGS.)
          ------------------------------

                1 O          2 C          3 C          4 C          5 H     

   1 O       0.0000000    1.2248399 *  2.3637543 *  3.5566528    2.0373593 *
   2 C       1.2248399 *  0.0000000    1.4800135 *  2.4540498 *  1.1011050 *
   3 C       2.3637543 *  1.4800135 *  0.0000000    1.3392023 *  2.2008343 *
   4 C       3.5566528    2.4540498 *  1.3392023 *  0.0000000    2.6685151 *
   5 H       2.0373593 *  1.1011050 *  2.2008343 *  2.6685151 *  0.0000000  
   6 H       2.6118527 *  2.1910622 *  1.0865744 *  2.1317948 *  3.1327882  
   7 H       3.9174414    2.7109398 *  2.1329962 *  1.0875818 *  2.4684306 *
   8 H       4.4577616    3.4472469    2.1068655 *  1.0865047 *  3.7509276  

                6 H          7 H          8 H     

   1 O       2.6118527 *  3.9174414    4.4577616  
   2 C       2.1910622 *  2.7109398 *  3.4472469  
   3 C       1.0865744 *  2.1329962 *  2.1068655 *
   4 C       2.1317948 *  1.0875818 *  1.0865047 *
   5 H       3.1327882    2.4684306 *  3.7509276  
   6 H       0.0000000    3.1086667    2.4725976 *
   7 H       3.1086667    0.0000000    1.8544605 *
   8 H       2.4725976 *  1.8544605 *  0.0000000  

  * ... LESS THAN  3.000


     ATOMIC BASIS SET
     ----------------
 THE CONTRACTED PRIMITIVE FUNCTIONS HAVE BEEN UNNORMALIZED
 THE CONTRACTED BASIS FUNCTIONS ARE NOW NORMALIZED TO UNITY

  SHELL TYPE  PRIMITIVE        EXPONENT          CONTRACTION COEFFICIENT(S)

 O         

      1   S       1          5484.6716600    0.001831074430
      1   S       2           825.2349460    0.013950172200
      1   S       3           188.0469580    0.068445078098
      1   S       4            52.9645000    0.232714335992
      1   S       5            16.8975704    0.470192897984
      1   S       6             5.7996353    0.358520852987

      2   L       7            15.5396162   -0.110777549525    0.070874268231
      2   L       8             3.5999336   -0.148026262701    0.339752839147
      2   L       9             1.0137618    1.130767015354    0.727158577316

      3   L      10             0.2700058    1.000000000000    1.000000000000

      4   D      11             0.8000000    1.000000000000

 C         

      5   S      12          3047.5248800    0.001834737132
      5   S      13           457.3695180    0.014037322813
      5   S      14           103.9486850    0.068842622264
      5   S      15            29.2101553    0.232184443216
      5   S      16             9.2866630    0.467941348435
      5   S      17             3.1639270    0.362311985337

      6   L      18             7.8682723   -0.119332419775    0.068999066591
      6   L      19             1.8812885   -0.160854151696    0.316423960957
      6   L      20             0.5442493    1.143456437840    0.744308290898

      7   L      21             0.1687145    1.000000000000    1.000000000000

      8   D      22             0.8000000    1.000000000000

 C         

      9   S      23          3047.5248800    0.001834737132
      9   S      24           457.3695180    0.014037322813
      9   S      25           103.9486850    0.068842622264
      9   S      26            29.2101553    0.232184443216
      9   S      27             9.2866630    0.467941348435
      9   S      28             3.1639270    0.362311985337

     10   L      29             7.8682723   -0.119332419775    0.068999066591
     10   L      30             1.8812885   -0.160854151696    0.316423960957
     10   L      31             0.5442493    1.143456437840    0.744308290898

     11   L      32             0.1687145    1.000000000000    1.000000000000

     12   D      33             0.8000000    1.000000000000

 C         

     13   S      34          3047.5248800    0.001834737132
     13   S      35           457.3695180    0.014037322813
     13   S      36           103.9486850    0.068842622264
     13   S      37            29.2101553    0.232184443216
     13   S      38             9.2866630    0.467941348435
     13   S      39             3.1639270    0.362311985337

     14   L      40             7.8682723   -0.119332419775    0.068999066591
     14   L      41             1.8812885   -0.160854151696    0.316423960957
     14   L      42             0.5442493    1.143456437840    0.744308290898

     15   L      43             0.1687145    1.000000000000    1.000000000000

     16   D      44             0.8000000    1.000000000000

 H         

     17   S      45            18.7311370    0.033494604338
     17   S      46             2.8253944    0.234726953484
     17   S      47             0.6401217    0.813757326146

     18   S      48             0.1612778    1.000000000000

 H         

     19   S      49            18.7311370    0.033494604338
     19   S      50             2.8253944    0.234726953484
     19   S      51             0.6401217    0.813757326146

     20   S      52             0.1612778    1.000000000000

 H         

     21   S      53            18.7311370    0.033494604338
     21   S      54             2.8253944    0.234726953484
     21   S      55             0.6401217    0.813757326146

     22   S      56             0.1612778    1.000000000000

 H         

     23   S      57            18.7311370    0.033494604338
     23   S      58             2.8253944    0.234726953484
     23   S      59             0.6401217    0.813757326146

     24   S      60             0.1612778    1.000000000000

 TOTAL NUMBER OF BASIS SET SHELLS             =   24
 NUMBER OF CARTESIAN GAUSSIAN BASIS FUNCTIONS =   68
 NUMBER OF ELECTRONS                          =   30
 CHARGE OF MOLECULE                           =    0
 SPIN MULTIPLICITY                            =    1
 NUMBER OF OCCUPIED ORBITALS (ALPHA)          =   15
 NUMBER OF OCCUPIED ORBITALS (BETA )          =   15
 TOTAL NUMBER OF ATOMS                        =    8
 THE NUCLEAR REPULSION ENERGY IS      102.7141878800

 SELECTED MURRAY-HANDY-LAMING RADIAL GRID

 LEGACY BECKE'S FUZZY CELL METHOD

 SELECTED ORIGINAL BECKE'S PARTITION FUNCTION

     LEBEDEV GRID-BASED DFT OPTIONS
     ------------------------------
     DFTTYP=B3LYP   
     NRAD  =      96     NLEB  =     590
     NRAD0 =      24     NLEB0 =     110
     SWOFF =    5.00E-03 (PURE SCF -> DFT)
     SWITCH=    3.00E-04 (COARSE -> TIGHT GRID)
     THRESH=    0.00E+00 GTHRE=    1.00E+00

 GRIMME'S EMPIRICAL DISPERSION CORRECTION= F

     $CONTRL OPTIONS
     ---------------
 SCFTYP=RHF          RUNTYP=OPTIMIZE     EXETYP=RUN     
 MPLEVL=       0     CITYP =NONE         CCTYP =NONE         VBTYP =NONE    
 DFTTYP=B3LYP        TDDFT =NONE    
 MULT  =       1     ICHARG=       0     NZVAR =       0     COORD =UNIQUE  
 PP    =NONE         RELWFN=NONE         LOCAL =NONE         NUMGRD=       F
 ISPHER=      -1     NOSYM =       0     MAXIT =     200     UNITS =ANGS    
 PLTORB=       F     MOLPLT=       F     AIMPAC=       F     FRIEND=        
 NPRINT=       7     IREST =       0     GEOM  =INPUT   
 NORMF =       0     NORMP =       0     ITOL  =      20     ICUT  =       9
 INTTYP=BEST         GRDTYP=BEST         QMTTOL= 1.0E-06

     $SYSTEM OPTIONS
     ---------------
  REPLICATED MEMORY=   250000000 WORDS (ON EVERY NODE).
 DISTRIBUTED MEMDDI=           0 MILLION WORDS IN AGGREGATE,
 MEMDDI DISTRIBUTED OVER   1 PROCESSORS IS           0 WORDS/PROCESSOR.
 TOTAL MEMORY REQUESTED ON EACH PROCESSOR=   250000000 WORDS.
 TIMLIM=        2879.00 MINUTES, OR       2.0 DAYS.
 PARALL= F  BALTYP=  DLB     KDIAG=    0  COREFL= F
 MXSEQ2=     300 MXSEQ3=     150  mem10=         0

          ----------------
          PROPERTIES INPUT
          ----------------

     MOMENTS            FIELD           POTENTIAL          DENSITY
 IEMOM =       1   IEFLD =       0   IEPOT =       0   IEDEN =       0
 WHERE =COMASS     WHERE =NUCLEI     WHERE =NUCLEI     WHERE =NUCLEI  
 OUTPUT=BOTH       OUTPUT=BOTH       OUTPUT=BOTH       OUTPUT=BOTH    
 IEMINT=       0   IEFINT=       0                     IEDINT=       0
                                                       MORB  =       0
          EXTRAPOLATION IN EFFECT
          DIIS IN EFFECT
 ORBITAL PRINTING OPTION: NPREO=     1    68     2     1

     -------------------------------
     INTEGRAL TRANSFORMATION OPTIONS
     -------------------------------
     NWORD  =            0
     CUTOFF = 1.0E-09     MPTRAN =       0
     DIRTRF =       T     AOINTS =DUP     

          ----------------------
          INTEGRAL INPUT OPTIONS
          ----------------------
 NOPK  =       1 NORDER=       0 SCHWRZ=       T

     ------------------------------------------
     THE POINT GROUP IS C1 , NAXIS= 0, ORDER= 1
     ------------------------------------------

     DIMENSIONS OF THE SYMMETRY SUBSPACES ARE
 A   =   68

 ..... DONE SETTING UP THE RUN .....
 STEP CPU TIME =     0.01 TOTAL CPU TIME =          0.0 (      0.0 MIN)
 TOTAL WALL CLOCK TIME=          0.0 SECONDS, CPU UTILIZATION IS    50.00%


          -----------------------------
          STATIONARY POINT LOCATION RUN
          -----------------------------

 OBTAINING INITIAL HESSIAN, HESS=GUESS   
 CARTESIAN COORDINATE OPTIMIZATION USING BADGER'S RULE FORCE CONSTANT GUESS

          PARAMETERS CONTROLLING GEOMETRY SEARCH ARE
          METHOD =QA                  UPHESS =BFGS    
          NNEG   =         0          NFRZ   =         0
          NSTEP  =       999          IFOLOW =         1
          HESS   =GUESS               RESTAR =         F
          IHREP  =         0          HSSEND =         T
          NPRT   =         0          NPUN   =         0
          OPTTOL = 5.000E-04          RMIN   = 1.500E-03
          RMAX   = 1.000E-01          RLIM   = 7.000E-02
          DXMAX  = 3.000E-01          PURIFY =         F
          MOVIE  =         F          TRUPD  =         T
          TRMAX  = 5.000E-01          TRMIN  = 5.000E-02
          ITBMAT =         5          STPT   =         F
          STSTEP = 1.000E-02          PROJCT=          T

 BEGINNING GEOMETRY SEARCH POINT NSERCH=   0 ...

 COORDINATES OF ALL ATOMS ARE (ANGS)
   ATOM   CHARGE       X              Y              Z
 ------------------------------------------------------------
 O           8.0  -1.6786400000   0.2836500000   0.1784100000
 C           6.0  -0.6385900000  -0.3203500000  -0.0533500000
 C           6.0   0.6713700000   0.3684000000  -0.0616000000
 C           6.0   1.8152600000  -0.3276500000  -0.0838000000
 H           1.0  -0.6211700000  -1.4019000000  -0.2592100000
 H           1.0   0.6462300000   1.4543900000  -0.0363500000
 H           1.0   1.8413100000  -1.4149100000  -0.0884100000
 H           1.0   2.7705700000   0.1899100000  -0.0811700000

          ********************
          1 ELECTRON INTEGRALS
          ********************
 ...... END OF ONE-ELECTRON INTEGRALS ......
 STEP CPU TIME =     0.00 TOTAL CPU TIME =          0.0 (      0.0 MIN)
 TOTAL WALL CLOCK TIME=          0.0 SECONDS, CPU UTILIZATION IS    25.00%

          -------------
          GUESS OPTIONS
          -------------
          GUESS =HUCKEL            NORB  =       0          NORDER=       0
          MIX   =       F          PRTMO =       F          PUNMO =       F
          TOLZ  = 1.0E-08          TOLE  = 1.0E-05
          SYMDEN=       F          PURIFY=       F

 INITIAL GUESS ORBITALS GENERATED BY HUCKEL   ROUTINE.
 HUCKEL GUESS REQUIRES     42032 WORDS.

 SYMMETRIES FOR INITIAL GUESS ORBITALS FOLLOW.   BOTH SET(S).
    15 ORBITALS ARE OCCUPIED (    4 CORE ORBITALS).
     5=A        6=A        7=A        8=A        9=A       10=A       11=A   
    12=A       13=A       14=A       15=A       16=A       17=A       18=A   
    19=A       20=A       21=A       22=A       23=A       24=A       25=A   
 ...... END OF INITIAL ORBITAL SELECTION ......
 STEP CPU TIME =     0.01 TOTAL CPU TIME =          0.0 (      0.0 MIN)
 TOTAL WALL CLOCK TIME=          0.1 SECONDS, CPU UTILIZATION IS    33.33%

                    ----------------------
                    AO INTEGRAL TECHNOLOGY
                    ----------------------
     S,P,L SHELL ROTATED AXIS INTEGRALS, REPROGRAMMED BY
        KAZUYA ISHIMURA (IMS) AND JOSE SIERRA (SYNSTAR).
     S,P,D,L SHELL ROTATED AXIS INTEGRALS PROGRAMMED BY
        KAZUYA ISHIMURA (INSTITUTE FOR MOLECULAR SCIENCE).
     S,P,D,F,G SHELL TO TOTAL QUARTET ANGULAR MOMENTUM SUM 5,
        ERIC PROGRAM BY GRAHAM FLETCHER (ELORET AND NASA ADVANCED
        SUPERCOMPUTING DIVISION, AMES RESEARCH CENTER).
     S,P,D,F,G,L SHELL GENERAL RYS QUADRATURE PROGRAMMED BY
        MICHEL DUPUIS (PACIFIC NORTHWEST NATIONAL LABORATORY).

          --------------------
          2 ELECTRON INTEGRALS
          --------------------

 DIRECT SCF METHOD SKIPS INTEGRAL STORAGE ON DISK.
 DIRECT TRANSFORMATION SKIPS AO INTEGRAL STORAGE ON DISK.
  ...... END OF TWO-ELECTRON INTEGRALS .....
 STEP CPU TIME =     0.01 TOTAL CPU TIME =          0.0 (      0.0 MIN)
 TOTAL WALL CLOCK TIME=          0.1 SECONDS, CPU UTILIZATION IS    42.86%

          --------------------------
             R-B3LYP SCF CALCULATION
          --------------------------

     NUCLEAR ENERGY =       102.7141878800
     MAXIT =  200     NPUNCH=    2
     EXTRAP=T  DAMP=F  SHIFT=F  RSTRCT=F  DIIS=T  DEM=F  SOSCF=F
         DENSITY MATRIX CONVERGENCE THRESHOLD=  2.00E-05
     COARSE -> FINE DFT GRID SWITCH THRESHOLD=  3.00E-04 (SWITCH IN $DFT)
                   HF -> DFT SWITCH THRESHOLD=  5.00E-03 (SWOFF IN $DFT)
     MEMORY REQUIRED FOR RHF ITERS=    620217 WORDS.

 DIRECT SCF CALCULATION, SCHWRZ=T   FDIFF=T,  DIRTHR=  0.00E+00 NITDIR=10
 SCHWARZ INEQUALITY OVERHEAD:      2343 INTEGRALS, T=        0.00

 DFT CODE IS SWITCHING FROM THE FINE GRID NRAD= 96,  NLEB=  590
                      TO THE COARSE GRID NRAD0= 24, NLEB0=  110

     EXCHANGE FUNCTIONAL   =B88&HFX   
     CORRELATION FUNCTIONAL=LYP88&VWN5
     DFT THRESHOLD         =.883E-08
     GRID CHANGE THRESHOLD =.300E-03
 FOR AN EULER-MACLAURIN QUADRATURE USING  96 RADIAL POINTS:
 SMALLEST GAUSSIAN PRIMITIVE EXPONENT=        0.1612777588 OF TYPE -S-
 ON ATOM NUMBER   5 HAS RADIAL NORMALIZATION=  1.000000
  LARGEST GAUSSIAN PRIMITIVE EXPONENT=     5484.6716600000 OF TYPE -S-
 ON ATOM NUMBER   1 HAS RADIAL NORMALIZATION=  1.000000
 DFT IS SWITCHED OFF, PERFORMING PURE SCF UNTIL SWOFF THRESHOLD IS REACHED.

                                                                                   NONZERO     BLOCKS
 ITER EX DEM     TOTAL ENERGY        E CHANGE  DENSITY CHANGE    DIIS ERROR      INTEGRALS    SKIPPED
   1  0  0     -190.2054241015  -190.2054241015   0.306536396   0.741655490        2533266       4234
          * * *   INITIATING DIIS PROCEDURE   * * *
   2  1  0     -190.6943144726    -0.4888903712   0.156721284   0.107035116        2533001       4517
   3  2  0     -190.7278604792    -0.0335460066   0.080757960   0.102235584        2530478       4909
   4  3  0     -190.7578555009    -0.0299950217   0.014483154   0.008222089        2526555       5301
   5  4  0     -190.7585460450    -0.0006905442   0.006366333   0.003506491        2514923       5881
   6  5  0     -190.7586314432    -0.0000853981   0.002661230   0.000999067        2498743       6606
 CONVERGED TO SWOFF, SO DFT CALCULATION IS NOW SWITCHED ON.
          * * *   INITIATING DIIS PROCEDURE   * * *
   7  6  0     -191.7797944364    -1.0211629932   0.117738992   0.080875294        2533373       4244
   8  7  0     -191.7973321049    -0.0175376685   0.071832355   0.029538171        2531050       4813
   9  8  0     -191.7920160329     0.0053160720   0.057399094   0.042944232        2526781       5208
  10  9  0     -191.8016534366    -0.0096374037   0.009703532   0.011577804        2522629       5480
  11 10  0     -191.8019816743    -0.0003282377   0.001515210   0.000957000        2506212       6185
  12 11  0     -191.8019834625    -0.0000017882   0.000831394   0.000519806        2462461       7596
  13 12  0     -191.8019856649    -0.0000022025   0.000077237   0.000061335        2418361       8853
 DFT CODE IS SWITCHING BACK TO THE FINE GRID
          * * *   INITIATING DIIS PROCEDURE   * * *
  14 13  0     -191.7999851578     0.0020005071   0.002066861   0.001450218        2533489       4204
  15 14  0     -191.7999934905    -0.0000083327   0.000729048   0.000198915        2484429       7150
  16 15  0     -191.7999931097     0.0000003808   0.000474088   0.000413896        2424054       9052
  17 16  0     -191.7999937616    -0.0000006519   0.000102942   0.000061502        2399438       9684
  18 17  0     -191.7999937736    -0.0000000120   0.000037353   0.000036031        2347608      10630
  19 18  0     -191.7999937784    -0.0000000048   0.000011633   0.000005682        2296719      11817
  20 19  0     -191.7999937785    -0.0000000001   0.000005206   0.000003758        2205622      14081

          -----------------
          DENSITY CONVERGED
          -----------------
     TIME TO FORM FOCK OPERATORS=       9.5 SECONDS (       0.5 SEC/ITER)
     FOCK TIME ON FIRST ITERATION=       0.1, LAST ITERATION=       1.1
     TIME TO SOLVE SCF EQUATIONS=       0.1 SECONDS (       0.0 SEC/ITER)

 FINAL R-B3LYP ENERGY IS     -191.7999937785 AFTER  20 ITERATIONS
 DFT EXCHANGE + CORRELATION ENERGY =       -21.1462791785
 TOTAL ELECTRON NUMBER             =        29.9999962944

          ------------
          EIGENVECTORS
          ------------

                      1          2          3          4          5
                  -19.1437   -10.2742   -10.2161   -10.2068    -1.0336
                     A          A          A          A          A   
    1  O  1  S    0.992770  -0.000131  -0.000034   0.000019  -0.194576
    2  O  1  S    0.025703   0.000375  -0.000152   0.000045   0.425403
    3  O  1  X    0.000966  -0.000053  -0.000012   0.000022   0.137346
    4  O  1  Y   -0.000574   0.000013  -0.000002   0.000005  -0.078117
    5  O  1  Z   -0.000217   0.000003   0.000009  -0.000016  -0.030375
    6  O  1  S    0.013609  -0.002700   0.000859  -0.000607   0.399770
    7  O  1  X    0.001389  -0.001569   0.000241  -0.000304   0.049927
    8  O  1  Y   -0.000685   0.001035  -0.000034  -0.000092  -0.024600
    9  O  1  Z   -0.000304   0.000399  -0.000060   0.000050  -0.010703
   10  O  1 XX   -0.007689  -0.000176  -0.000058   0.000084   0.005038
   11  O  1 YY   -0.007972   0.000096  -0.000113   0.000104  -0.005710
   12  O  1 ZZ   -0.008076   0.000368  -0.000107   0.000001  -0.005252
   13  O  1 XY   -0.000240   0.000298   0.000007   0.000010  -0.010205
   14  O  1 XZ   -0.000101   0.000136  -0.000009  -0.000004  -0.003396
   15  O  1 YZ    0.000055  -0.000103  -0.000005   0.000030   0.001238
   16  C  2  S    0.000013   0.992820  -0.000116  -0.002339  -0.117965
   17  C  2  S    0.000545   0.048711  -0.000185  -0.000378   0.229970
   18  C  2  X    0.000009  -0.000624  -0.000024  -0.000220  -0.148564
   19  C  2  Y    0.000050   0.000433   0.000003  -0.000153   0.092635
   20  C  2  Z    0.000001   0.000156  -0.000002   0.000005   0.034166
   21  C  2  S   -0.003257  -0.008883   0.000059   0.005015   0.071861
   22  C  2  X    0.002239  -0.002981   0.000466   0.001837   0.017629
   23  C  2  Y   -0.001999   0.001257  -0.000342   0.000996  -0.030908
   24  C  2  Z   -0.000593   0.000522  -0.000099   0.000018  -0.007255
   25  C  2 XX   -0.000618  -0.008695   0.000041  -0.000383   0.010873
   26  C  2 YY   -0.000235  -0.009209  -0.000034  -0.000265  -0.006534
   27  C  2 ZZ   -0.000044  -0.009664  -0.000063  -0.000128  -0.017646
   28  C  2 XY    0.000402  -0.000467   0.000025  -0.000197  -0.020309
   29  C  2 XZ    0.000157  -0.000220   0.000004  -0.000004  -0.007680
   30  C  2 YZ   -0.000094   0.000162  -0.000004   0.000022   0.005047
   31  C  3  S   -0.000010   0.002068   0.045089   0.991724  -0.020796
   32  C  3  S    0.000006  -0.000075   0.001741   0.049625   0.037953
   33  C  3  X   -0.000006   0.000234  -0.000345   0.000065  -0.028214
   34  C  3  Y   -0.000046   0.000225   0.000224  -0.000261  -0.007935
   35  C  3  Z   -0.000000   0.000006   0.000007   0.000007   0.001691
   36  C  3  S    0.000605   0.003077   0.003802  -0.015625   0.023834
   37  C  3  X   -0.000404  -0.001108   0.001596   0.000187  -0.020153
   38  C  3  Y    0.000393  -0.001229  -0.000765   0.002162   0.005854
   39  C  3  Z    0.000093  -0.000118   0.000001   0.000008   0.002706
   40  C  3 XX   -0.000077  -0.000497  -0.000721  -0.009171   0.007005
   41  C  3 YY    0.000002  -0.000264  -0.000675  -0.009312  -0.000124
   42  C  3 ZZ   -0.000017  -0.000171  -0.000570  -0.009642  -0.002439
   43  C  3 XY    0.000028  -0.000141   0.000027  -0.000167   0.003020
   44  C  3 XZ    0.000009   0.000012  -0.000000  -0.000007  -0.000505
   45  C  3 YZ   -0.000013   0.000004  -0.000005   0.000012  -0.000269
   46  C  4  S    0.000023  -0.000053   0.991668  -0.045571  -0.004009
   47  C  4  S    0.000110  -0.000241   0.049198  -0.002800   0.009918
   48  C  4  X   -0.000083   0.000131  -0.000056   0.000353  -0.007006
   49  C  4  Y   -0.000016   0.000069  -0.000006  -0.000200   0.000790
   50  C  4  Z   -0.000013  -0.000007   0.000026  -0.000006   0.000161
   51  C  4  S   -0.000098   0.000033  -0.012720   0.005863   0.010810
   52  C  4  X    0.000505  -0.000691   0.000800  -0.002197   0.006807
   53  C  4  Y    0.000261  -0.000259  -0.000460   0.000448   0.010287
   54  C  4  Z    0.000008   0.000051  -0.000050   0.000032  -0.000295
   55  C  4 XX   -0.000006   0.000068  -0.009288   0.000123   0.000376
   56  C  4 YY    0.000031   0.000032  -0.009396   0.000147  -0.000117
   57  C  4 ZZ    0.000064  -0.000131  -0.009783   0.000323   0.000107
   58  C  4 XY   -0.000008  -0.000052  -0.000132   0.000111  -0.000076
   59  C  4 XZ    0.000001  -0.000009  -0.000005   0.000004   0.000025
   60  C  4 YZ   -0.000007   0.000006   0.000005  -0.000005  -0.000042
   61  H  5  S   -0.000041  -0.000258  -0.000060  -0.000115   0.028447
   62  H  5  S   -0.000541   0.002440  -0.000168  -0.000095  -0.016650
   63  H  6  S   -0.000026  -0.000044  -0.000099  -0.000354   0.007806
   64  H  6  S   -0.000305   0.000319   0.000013   0.001674  -0.001535
   65  H  7  S    0.000087  -0.000123  -0.000338  -0.000122   0.002971
   66  H  7  S    0.000035  -0.000045   0.002155  -0.000506   0.003671
   67  H  8  S   -0.000035   0.000043  -0.000332  -0.000017   0.000065
   68  H  8  S   -0.000293   0.000515   0.002133   0.000070  -0.007001

                      6          7          8          9         10
                   -0.7980    -0.6451    -0.5734    -0.4768    -0.4692
                     A          A          A          A          A   
    1  O  1  S    0.040118  -0.067696  -0.035522   0.014470   0.064715
    2  O  1  S   -0.093003   0.154847   0.081758  -0.025034  -0.135210
    3  O  1  X    0.002578  -0.060134  -0.009596  -0.056245   0.253749
    4  O  1  Y    0.014097   0.011046   0.109992  -0.183565  -0.060304
    5  O  1  Z    0.002972   0.009989   0.018731  -0.036402  -0.056560
    6  O  1  S   -0.082069   0.188423   0.101178  -0.081368  -0.277917
    7  O  1  X    0.005775  -0.035137  -0.009326  -0.042273   0.127919
    8  O  1  Y    0.000123   0.007616   0.057576  -0.095105  -0.022736
    9  O  1  Z   -0.000862   0.005797   0.010585  -0.017141  -0.027482
   10  O  1 XX    0.001852  -0.008614   0.001449  -0.007812   0.020744
   11  O  1 YY   -0.000550  -0.001636  -0.007581   0.014347   0.003475
   12  O  1 ZZ   -0.000571   0.000702   0.000398   0.003293   0.001177
   13  O  1 XY    0.000247   0.003147   0.008328  -0.008213  -0.006201
   14  O  1 XZ   -0.000218   0.001966   0.001241  -0.000762  -0.005075
   15  O  1 YZ   -0.000052  -0.000975  -0.002704   0.003818   0.001979
   16  C  2  S   -0.051289   0.116365   0.085470  -0.013586  -0.050799
   17  C  2  S    0.101433  -0.246862  -0.181372   0.026918   0.122446
   18  C  2  X    0.133209  -0.168487   0.019169  -0.181673  -0.071044
   19  C  2  Y   -0.002159   0.031872   0.226861  -0.261876   0.139776
   20  C  2  Z   -0.012804   0.028190   0.034456  -0.040725   0.011654
   21  C  2  S    0.082346  -0.211333  -0.182069   0.066238   0.104815
   22  C  2  X    0.039356  -0.047384  -0.022483  -0.059898  -0.016387
   23  C  2  Y   -0.010573   0.024621   0.073882  -0.072637   0.050918
   24  C  2  Z   -0.004502   0.011384   0.013515  -0.013599  -0.000843
   25  C  2 XX    0.003373   0.008735   0.009485  -0.001809  -0.012831
   26  C  2 YY    0.000977  -0.005533  -0.004878   0.006948   0.001894
   27  C  2 ZZ   -0.004562   0.008347   0.006231  -0.001755  -0.004573
   28  C  2 XY    0.010405  -0.012220   0.002594  -0.000134   0.000857
   29  C  2 XZ    0.001502  -0.002059  -0.000335  -0.000430   0.000399
   30  C  2 YZ    0.000096  -0.001491  -0.003048   0.001641   0.000257
   31  C  3  S   -0.160062   0.057174  -0.096325  -0.008212   0.031842
   32  C  3  S    0.313521  -0.116885   0.195639   0.014670  -0.069127
   33  C  3  X    0.056316   0.213245   0.022745   0.223743  -0.192492
   34  C  3  Y   -0.068380   0.003822   0.185621   0.133460   0.217059
   35  C  3  Z   -0.001901   0.000871   0.009012  -0.012655   0.007474
   36  C  3  S    0.203745  -0.102673   0.211612   0.011967  -0.025180
   37  C  3  X    0.005655   0.048766  -0.005886   0.097810  -0.033112
   38  C  3  Y    0.014369  -0.007483   0.056930   0.043930   0.054870
   39  C  3  Z    0.000182   0.000378   0.002606  -0.007584   0.001035
   40  C  3 XX    0.001913   0.002230  -0.006384  -0.001211   0.007551
   41  C  3 YY    0.002289  -0.003456   0.004908   0.002374   0.002956
   42  C  3 ZZ   -0.015576   0.004937  -0.007972  -0.000775   0.001538
   43  C  3 XY   -0.003993  -0.014110  -0.003573  -0.000183   0.007460
   44  C  3 XZ   -0.000072  -0.000555  -0.000526   0.000876   0.000104
   45  C  3 YZ    0.000364  -0.000169   0.000121   0.000843  -0.000079
   46  C  4  S   -0.145110  -0.131383   0.048823   0.007914  -0.006682
   47  C  4  S    0.280327   0.262918  -0.098196  -0.014664   0.016174
   48  C  4  X   -0.090157   0.082454  -0.066131   0.021953   0.361056
   49  C  4  Y    0.046646  -0.003444   0.153347   0.302743  -0.024395
   50  C  4  Z    0.002213   0.001027   0.003778  -0.002319  -0.002006
   51  C  4  S    0.219086   0.244953  -0.105993  -0.050821   0.006663
   52  C  4  X   -0.014656   0.036868  -0.015498   0.017203   0.146934
   53  C  4  Y   -0.002915  -0.005053   0.053290   0.106940  -0.005087
   54  C  4  Z    0.000221   0.000115   0.001720  -0.001323  -0.000025
   55  C  4 XX    0.006728  -0.002336   0.001157   0.004864   0.002437
   56  C  4 YY    0.001876   0.006624  -0.004330  -0.009378   0.006413
   57  C  4 ZZ   -0.015263  -0.012215   0.004617   0.000969  -0.000219
   58  C  4 XY   -0.004224   0.005775  -0.008594  -0.000661   0.014047
   59  C  4 XZ   -0.000321  -0.000034  -0.000347   0.000393   0.000313
   60  C  4 YZ    0.000245   0.000171   0.000202   0.000093   0.000000
   61  H  5  S    0.033769  -0.105510  -0.180244   0.150417  -0.019463
   62  H  5  S    0.004346  -0.030334  -0.095919   0.106092  -0.021365
   63  H  6  S    0.075322  -0.044576   0.170172   0.078113   0.091692
   64  H  6  S    0.002813  -0.009113   0.084735   0.051236   0.071998
   65  H  7  S    0.074494   0.105595  -0.120457  -0.178025   0.030772
   66  H  7  S    0.009579   0.036184  -0.065243  -0.122424   0.024961
   67  H  8  S    0.071698   0.131835  -0.038271   0.081753   0.188501
   68  H  8  S    0.014837   0.047378  -0.020267   0.059309   0.133501

                     11         12         13         14         15
                   -0.4151    -0.3932    -0.3883    -0.2879    -0.2532
                     A          A          A          A          A   
    1  O  1  S    0.061547  -0.017596   0.001029   0.000831  -0.000494
    2  O  1  S   -0.122967   0.032403  -0.000624  -0.000433  -0.006452
    3  O  1  X    0.383465  -0.021894  -0.010029  -0.045161   0.312411
    4  O  1  Y   -0.209399   0.137992  -0.135005   0.064146   0.493661
    5  O  1  Z   -0.007509   0.248259   0.357130  -0.267672   0.060072
    6  O  1  S   -0.269928   0.093435  -0.016575  -0.013942   0.043037
    7  O  1  X    0.205833  -0.002417  -0.008909  -0.034611   0.229966
    8  O  1  Y   -0.113931   0.075677  -0.078316   0.048618   0.346880
    9  O  1  Z   -0.000802   0.149232   0.219983  -0.192348   0.040531
   10  O  1 XX    0.023638   0.002717  -0.000166  -0.002151   0.012371
   11  O  1 YY    0.006168  -0.007459   0.009170  -0.001564  -0.015888
   12  O  1 ZZ   -0.000645  -0.005891  -0.007248   0.005494  -0.003201
   13  O  1 XY   -0.013883   0.004234  -0.007033   0.003732   0.008963
   14  O  1 XZ   -0.001094   0.013312   0.020823  -0.010554  -0.000258
   15  O  1 YZ    0.000471  -0.009018  -0.009567   0.006801  -0.004071
   16  C  2  S   -0.018238  -0.019976   0.012577  -0.001225   0.001380
   17  C  2  S    0.054701   0.041674  -0.029512   0.001089  -0.014573
   18  C  2  X   -0.223087   0.219595  -0.039272  -0.001467  -0.077103
   19  C  2  Y    0.183535   0.023805  -0.136199  -0.006618  -0.111391
   20  C  2  Z    0.134341   0.165215   0.290274  -0.047058  -0.011175
   21  C  2  S    0.001014   0.076696  -0.032022   0.019123   0.002135
   22  C  2  X   -0.016586   0.080408  -0.022054  -0.013725   0.079355
   23  C  2  Y    0.010476   0.006916  -0.050775   0.005459   0.010335
   24  C  2  Z    0.046402   0.095901   0.172894  -0.028632  -0.003759
   25  C  2 XX    0.007253  -0.004740  -0.004027   0.001943  -0.035607
   26  C  2 YY   -0.017884  -0.001298   0.001183   0.003908   0.036902
   27  C  2 ZZ   -0.004018   0.004368   0.006596  -0.005154   0.000335
   28  C  2 XY   -0.011366   0.003358   0.006719  -0.003192  -0.022981
   29  C  2 XZ   -0.004499  -0.005387  -0.010974   0.025008   0.000092
   30  C  2 YZ    0.001740   0.006801   0.010773  -0.002117   0.010907
   31  C  3  S   -0.001537   0.012834  -0.006749   0.001497   0.039218
   32  C  3  S    0.007187  -0.023145   0.009437  -0.001036  -0.076177
   33  C  3  X    0.170092  -0.072344   0.002231   0.009454   0.202491
   34  C  3  Y   -0.163177  -0.209647   0.172646  -0.006609   0.084771
   35  C  3  Z    0.040818   0.081602   0.152702   0.360980  -0.005385
   36  C  3  S   -0.028089  -0.050108   0.045621  -0.017274  -0.333561
   37  C  3  X    0.035044  -0.028291   0.017565   0.004543   0.060775
   38  C  3  Y   -0.019552  -0.074250   0.051360  -0.007354   0.118215
   39  C  3  Z    0.025862   0.048078   0.082982   0.242579   0.007051
   40  C  3 XX    0.007449   0.014355  -0.012203   0.000337  -0.001917
   41  C  3 YY   -0.012062  -0.018535   0.015567   0.000813   0.004835
   42  C  3 ZZ    0.000486   0.001358  -0.000743  -0.000412   0.002179
   43  C  3 XY   -0.008622   0.009761  -0.001413  -0.000284  -0.005441
   44  C  3 XZ   -0.002420  -0.003117  -0.004492   0.014328  -0.001264
   45  C  3 YZ   -0.002352  -0.003504  -0.004699  -0.009541   0.001394
   46  C  4  S   -0.018690  -0.003159   0.010483   0.000376  -0.009312
   47  C  4  S    0.043073   0.005759  -0.021947  -0.001821   0.016028
   48  C  4  X   -0.210091   0.130787  -0.004847   0.001764  -0.070903
   49  C  4  Y    0.081627   0.249557  -0.154844  -0.000259   0.022138
   50  C  4  Z    0.025235   0.048015   0.083377   0.375981  -0.011194
   51  C  4  S    0.067258   0.015116  -0.048358   0.001212   0.120266
   52  C  4  X   -0.073514   0.048472   0.000943  -0.005271  -0.090311
   53  C  4  Y    0.036038   0.096104  -0.063411  -0.000507   0.046674
   54  C  4  Z    0.013238   0.026050   0.048279   0.274600  -0.013397
   55  C  4 XX   -0.000749   0.018495  -0.009851  -0.000248  -0.006688
   56  C  4 YY   -0.006465  -0.018809   0.012237  -0.000444   0.005333
   57  C  4 ZZ   -0.000294  -0.000433   0.000929   0.000386  -0.001090
   58  C  4 XY   -0.006753   0.011398  -0.004141   0.000216  -0.004662
   59  C  4 XZ   -0.001764  -0.002907  -0.005306  -0.013310   0.000455
   60  C  4 YZ    0.000558   0.001085   0.002337   0.007667   0.000117
   61  H  5  S   -0.112275  -0.013997   0.040863   0.015414   0.167141
   62  H  5  S   -0.125036  -0.028293   0.051529   0.013880   0.257412
   63  H  6  S   -0.109107  -0.160189   0.132105   0.000468   0.027414
   64  H  6  S   -0.118365  -0.135643   0.116623   0.006614   0.070413
   65  H  7  S   -0.041645  -0.173498   0.102212  -0.001874   0.014868
   66  H  7  S   -0.048495  -0.162061   0.103146   0.000048   0.046564
   67  H  8  S   -0.075172   0.168199  -0.068376   0.000782  -0.042727
   68  H  8  S   -0.076843   0.152397  -0.058182   0.003501  -0.054943

                     16         17         18         19         20
                   -0.0609     0.0558     0.1106     0.1158     0.1532
                     A          A          A          A          A   
    1  O  1  S   -0.001101   0.004096   0.013842  -0.005810  -0.003873
    2  O  1  S    0.004359  -0.013884  -0.030249   0.003887  -0.018562
    3  O  1  X    0.050578   0.001424  -0.035232   0.043573  -0.027862
    4  O  1  Y   -0.055346  -0.048050   0.083793   0.001000   0.066314
    5  O  1  Z    0.343395   0.238494  -0.008494   0.029951   0.024605
    6  O  1  S    0.004926  -0.028443  -0.134686   0.090252   0.197567
    7  O  1  X    0.045720   0.014760  -0.022627   0.069036   0.041276
    8  O  1  Y   -0.054021  -0.054119   0.160194   0.039061   0.069644
    9  O  1  Z    0.325154   0.301348  -0.001761   0.043657   0.021033
   10  O  1 XX    0.001012  -0.000297   0.002793  -0.008719  -0.005423
   11  O  1 YY    0.000741  -0.002825   0.001232  -0.001657  -0.010814
   12  O  1 ZZ   -0.000214   0.000578   0.003173  -0.002840  -0.003854
   13  O  1 XY   -0.000835   0.001987   0.001227  -0.000576  -0.010089
   14  O  1 XZ    0.000997  -0.001164   0.001099   0.000132  -0.002148
   15  O  1 YZ   -0.002218   0.005967  -0.001677   0.000662   0.000912
   16  C  2  S   -0.001019   0.003497  -0.043306  -0.030217  -0.110088
   17  C  2  S   -0.000353   0.000685   0.080995   0.031145   0.181218
   18  C  2  X   -0.039353  -0.049700  -0.019652  -0.008120   0.100350
   19  C  2  Y    0.059443   0.087441  -0.157327  -0.159307  -0.205518
   20  C  2  Z   -0.335942  -0.382820   0.023950  -0.075972  -0.079245
   21  C  2  S    0.012518  -0.105084   0.506541   0.578597   1.586545
   22  C  2  X   -0.030304  -0.129450  -0.224892   0.117439   0.502812
   23  C  2  Y    0.047578   0.116989  -0.457096  -0.280120  -0.591813
   24  C  2  Z   -0.313321  -0.533430   0.005234  -0.160261  -0.193930
   25  C  2 XX   -0.005148  -0.004430  -0.015468   0.010015  -0.016964
   26  C  2 YY   -0.003911  -0.002123   0.006578  -0.011338  -0.012142
   27  C  2 ZZ    0.007526   0.008537   0.001875  -0.004772   0.002959
   28  C  2 XY    0.004145   0.008354   0.008991  -0.014274  -0.003567
   29  C  2 XZ   -0.027086   0.004294   0.003098  -0.002506   0.002806
   30  C  2 YZ    0.004967   0.023482  -0.001833   0.003233  -0.001151
   31  C  3  S   -0.000875  -0.007913  -0.001239   0.070644   0.015380
   32  C  3  S   -0.001991   0.005253  -0.013527  -0.110296  -0.022173
   33  C  3  X    0.006673  -0.001189  -0.000421   0.010069   0.178496
   34  C  3  Y    0.004945   0.010418   0.086203  -0.227179   0.080237
   35  C  3  Z   -0.209832   0.411662  -0.027403   0.036059   0.025832
   36  C  3  S    0.026819   0.189702   0.358091  -1.066576  -0.170506
   37  C  3  X   -0.005325  -0.034691  -0.252479   0.138719   0.532912
   38  C  3  Y    0.016882  -0.008548   0.210396  -0.444744   0.285433
   39  C  3  Z   -0.262402   0.648180  -0.028321   0.071495   0.077423
   40  C  3 XX    0.002849   0.005495   0.002563  -0.017524   0.008666
   41  C  3 YY   -0.003955  -0.007698  -0.003030   0.026567  -0.004708
   42  C  3 ZZ   -0.000510  -0.000318   0.000232   0.002836  -0.001276
   43  C  3 XY   -0.002691  -0.004263  -0.003225  -0.003706   0.027154
   44  C  3 XZ    0.028744   0.004302  -0.001704   0.002258   0.001739
   45  C  3 YZ   -0.000677   0.020185  -0.002379   0.003198   0.000887
   46  C  4  S   -0.004042  -0.013237  -0.114933  -0.003740   0.055411
   47  C  4  S    0.011314   0.030071   0.182033   0.002982  -0.082844
   48  C  4  X   -0.007247   0.001564   0.179486  -0.145244   0.046172
   49  C  4  Y   -0.003128   0.005132  -0.110079  -0.212136   0.166542
   50  C  4  Z    0.368147  -0.229386   0.002536  -0.021486  -0.024003
   51  C  4  S    0.030313   0.126933   1.800245  -0.018240  -0.872114
   52  C  4  X    0.018015   0.084044   0.534053  -0.396113   0.237342
   53  C  4  Y   -0.003261   0.006253  -0.286755  -0.519152   0.432169
   54  C  4  Z    0.432147  -0.464802   0.022129  -0.049409  -0.043469
   55  C  4 XX   -0.001090  -0.003493  -0.008835   0.011709  -0.010401
   56  C  4 YY    0.000785   0.000106  -0.004028  -0.010645   0.022101
   57  C  4 ZZ    0.000220   0.001286  -0.005676  -0.002135   0.000490
   58  C  4 XY   -0.001156  -0.001428  -0.010752   0.012300  -0.010834
   59  C  4 XZ    0.011284  -0.019141   0.000791  -0.002268  -0.002528
   60  C  4 YZ   -0.004142   0.017784  -0.001906   0.001670   0.001097
   61  H  5  S   -0.003910   0.017783   0.008793  -0.049846  -0.088584
   62  H  5  S   -0.022856   0.099200  -0.757422  -0.781244  -1.572541
   63  H  6  S   -0.012521  -0.020381   0.008427   0.112113  -0.016723
   64  H  6  S   -0.040548  -0.134247  -0.286516   1.334879  -0.228254
   65  H  7  S    0.005974   0.002050  -0.044558  -0.048025   0.108625
   66  H  7  S   -0.010240  -0.061521  -1.195536  -0.798712   1.105406
   67  H  8  S   -0.006685  -0.015070  -0.082842   0.047609  -0.047993
   68  H  8  S   -0.034131  -0.152161  -1.271456   0.851977  -0.231847

                     21         22         23         24         25
                    0.1923     0.2630     0.3141     0.3513     0.5086
                     A          A          A          A          A   
    1  O  1  S    0.004620  -0.106950  -0.033128   0.033874   0.003757
    2  O  1  S   -0.009795   0.103654   0.102586   0.038346   0.027543
    3  O  1  X   -0.038792   0.112279   0.162386  -0.058990   0.049981
    4  O  1  Y   -0.099914  -0.133745   0.029521  -0.014264   0.030351
    5  O  1  Z   -0.004727  -0.038505  -0.018901  -0.004162  -0.030536
    6  O  1  S   -0.098558   2.092393   0.268481  -1.006783  -0.225323
    7  O  1  X   -0.089210   0.647652   0.326263  -0.497716  -0.073558
    8  O  1  Y   -0.118217  -0.545286   0.039374  -0.064825   0.060075
    9  O  1  Z   -0.004307  -0.174997  -0.007368   0.061665  -0.050685
   10  O  1 XX   -0.000486  -0.017638   0.004405   0.027842  -0.009830
   11  O  1 YY   -0.001258  -0.049259   0.009582   0.017051   0.004126
   12  O  1 ZZ   -0.000461  -0.059913  -0.002332   0.048038   0.029431
   13  O  1 XY    0.004530  -0.031960  -0.006393   0.005586   0.013454
   14  O  1 XZ    0.000553  -0.012178   0.001864   0.007695  -0.030910
   15  O  1 YZ   -0.001666   0.007269   0.003936  -0.007538   0.019882
   16  C  2  S   -0.007419   0.030835   0.072688  -0.067526   0.010278
   17  C  2  S    0.033066   0.005775  -0.026524   0.068510  -0.091646
   18  C  2  X    0.145843   0.190301  -0.067034   0.275122  -0.089993
   19  C  2  Y    0.169415  -0.003390  -0.179034   0.358929   0.122732
   20  C  2  Z    0.013912  -0.030926  -0.001940   0.066836  -0.640742
   21  C  2  S   -0.261436  -0.802082  -1.689406   2.040605   0.291604
   22  C  2  X    0.044699   2.234310  -0.656104   0.389954  -0.066133
   23  C  2  Y    0.527292  -0.667816  -0.291391   1.839136  -0.010948
   24  C  2  Z    0.068971  -0.370624  -0.094426   0.219830   0.700769
   25  C  2 XX    0.001285   0.007939   0.027496  -0.004427   0.021273
   26  C  2 YY   -0.008000  -0.001701  -0.003943  -0.013908  -0.011438
   27  C  2 ZZ    0.003199  -0.017044  -0.008312   0.017168  -0.010195
   28  C  2 XY   -0.009115  -0.013957  -0.005619  -0.021653  -0.005701
   29  C  2 XZ   -0.001742  -0.004316  -0.005251  -0.000666  -0.008064
   30  C  2 YZ   -0.002032   0.006867   0.008234   0.000811  -0.018639
   31  C  3  S    0.092876   0.015183  -0.115873   0.026068  -0.018053
   32  C  3  S   -0.148147   0.058722   0.139749  -0.092597  -0.032434
   33  C  3  X   -0.006718  -0.046137   0.062298   0.299695  -0.111190
   34  C  3  Y   -0.178897   0.108161  -0.301399   0.068731  -0.014821
   35  C  3  Z    0.000268   0.030572  -0.004673   0.001902  -0.427669
   36  C  3  S   -1.590592  -1.176082   3.482117   0.695753   0.211187
   37  C  3  X   -0.130389   0.232838   0.648277   3.154337   0.420457
   38  C  3  Y   -1.022407   1.230095  -1.980560  -0.379816  -0.142274
   39  C  3  Z   -0.040390   0.129276  -0.001791  -0.113911   0.187565
   40  C  3 XX    0.025168  -0.015648  -0.013075   0.025078  -0.025363
   41  C  3 YY   -0.012815   0.031653   0.011848  -0.013862  -0.007617
   42  C  3 ZZ    0.000094   0.003120  -0.003218  -0.009246   0.013322
   43  C  3 XY    0.008730   0.021805  -0.001995   0.028701   0.015628
   44  C  3 XZ    0.000097   0.003245   0.000760  -0.000949  -0.011803
   45  C  3 YZ   -0.000469   0.005530   0.002844  -0.003786   0.031070
   46  C  4  S   -0.050079  -0.016822   0.075244   0.024632   0.003255
   47  C  4  S    0.076454  -0.044031  -0.027599   0.028387  -0.099194
   48  C  4  X    0.163574   0.177660   0.104683   0.008228   0.146662
   49  C  4  Y    0.240141  -0.059494   0.049639  -0.215365  -0.082200
   50  C  4  Z    0.005096   0.022170   0.016761   0.006625  -0.619016
   51  C  4  S    0.607578   1.066613  -2.376245  -2.179589  -0.209820
   52  C  4  X    0.507616  -0.460790   2.416188   1.225866  -0.014700
   53  C  4  Y    1.127622  -0.179919  -0.616889  -1.703783  -0.024230
   54  C  4  Z    0.018923  -0.050843  -0.051707  -0.011809   0.594362
   55  C  4 XX   -0.005585   0.014270   0.035958  -0.036022  -0.002622
   56  C  4 YY   -0.002138  -0.004847  -0.036063   0.025782  -0.009635
   57  C  4 ZZ   -0.002927  -0.007093   0.008871   0.006568  -0.000805
   58  C  4 XY    0.010507   0.015836  -0.027762  -0.031437   0.005799
   59  C  4 XZ    0.000374   0.000520   0.000533   0.000322   0.021885
   60  C  4 YZ    0.000413   0.003777   0.001024   0.000114  -0.023297
   61  H  5  S   -0.027061   0.065849   0.045207  -0.042790  -0.050397
   62  H  5  S    0.604873  -0.050893   0.157239   1.171145   0.076880
   63  H  6  S    0.017454   0.100599   0.033092  -0.033881  -0.021840
   64  H  6  S    1.687972  -0.712458   0.872665   0.181592   0.057109
   65  H  7  S   -0.009185  -0.049448  -0.123130   0.039829  -0.019055
   66  H  7  S    0.864775  -0.543917   0.215096  -1.157643  -0.022098
   67  H  8  S   -0.030773   0.039739  -0.023743  -0.190852  -0.003050
   68  H  8  S   -1.485190  -0.140473  -0.843826   0.308860  -0.035085

                     26         27         28         29         30
                    0.5175     0.5577     0.5852     0.6202     0.6364
                     A          A          A          A          A   
    1  O  1  S    0.017894   0.025536   0.002105  -0.002237  -0.003283
    2  O  1  S    0.054091  -0.122913  -0.008460  -0.009259  -0.043822
    3  O  1  X    0.160248  -0.026734  -0.006892  -0.196002   0.023566
    4  O  1  Y    0.119326  -0.034590   0.045161  -0.151561  -0.042363
    5  O  1  Z    0.011907  -0.000605  -0.092114  -0.032849  -0.040955
    6  O  1  S   -0.750827  -0.282575  -0.031142   0.285762   0.072883
    7  O  1  X   -0.229538  -0.309984  -0.014855   0.028166   0.038479
    8  O  1  Y    0.176574   0.030472   0.039357  -0.116884  -0.017262
    9  O  1  Z    0.097166   0.036067  -0.083578  -0.020276   0.127149
   10  O  1 XX   -0.015537  -0.035648  -0.007430   0.019859  -0.024200
   11  O  1 YY    0.041345  -0.020008  -0.008266   0.012261  -0.021316
   12  O  1 ZZ    0.038195   0.006258   0.011307  -0.016871  -0.013682
   13  O  1 XY    0.000149  -0.007275   0.010459  -0.026390   0.013513
   14  O  1 XZ    0.017107   0.000134  -0.042364  -0.010341   0.036463
   15  O  1 YZ   -0.002631  -0.002856   0.016596   0.010646   0.006383
   16  C  2  S    0.029447  -0.046377  -0.001269   0.003999   0.001251
   17  C  2  S   -0.306503  -0.470628   0.077056  -0.033880  -0.061556
   18  C  2  X   -0.179100  -0.316610  -0.041820  -0.408305   0.116818
   19  C  2  Y   -0.102513  -0.033631   0.178214  -0.252416  -0.090400
   20  C  2  Z    0.149532  -0.024407  -0.705798  -0.035990   0.192063
   21  C  2  S    0.941389   1.297712  -0.051424   0.048490  -0.074329
   22  C  2  X   -0.556771   0.454406  -0.028900   1.058719  -0.179522
   23  C  2  Y    0.384826   0.564266  -0.271117   0.733701   0.087460
   24  C  2  Z   -0.097358   0.110396   0.994001   0.075229  -0.640853
   25  C  2 XX    0.061329  -0.066375   0.008384  -0.043483   0.007675
   26  C  2 YY   -0.053879  -0.105777   0.015721   0.054788  -0.022895
   27  C  2 ZZ   -0.011995   0.038195  -0.007559  -0.011160   0.008556
   28  C  2 XY    0.005789  -0.073198   0.004629   0.048206  -0.020687
   29  C  2 XZ   -0.002794   0.006740  -0.003251   0.003649  -0.026570
   30  C  2 YZ    0.004767  -0.023492  -0.020622   0.005015   0.013318
   31  C  3  S   -0.069475  -0.004807   0.005354  -0.015733  -0.003106
   32  C  3  S   -0.178959  -0.382961   0.055436  -0.356411  -0.022409
   33  C  3  X   -0.435862   0.415611  -0.030427  -0.175310   0.081057
   34  C  3  Y   -0.074457   0.295766  -0.029216  -0.058916   0.067132
   35  C  3  Z    0.135393   0.081390   0.118540  -0.104654  -0.941879
   36  C  3  S    0.589832   0.217252   0.016612   0.067061   0.072021
   37  C  3  X    1.144184   0.287010  -0.010050   0.394463  -0.096204
   38  C  3  Y   -0.515341  -0.294693   0.046328   0.439427  -0.173639
   39  C  3  Z   -0.099509  -0.123215  -0.237420   0.122869   1.522356
   40  C  3 XX   -0.103833  -0.105322   0.018496  -0.022287  -0.010454
   41  C  3 YY   -0.044202  -0.009642   0.010509  -0.121914   0.004249
   42  C  3 ZZ    0.052210   0.017216  -0.008887   0.045160  -0.000220
   43  C  3 XY    0.050188  -0.016757   0.000391  -0.075511   0.014776
   44  C  3 XZ    0.009884   0.007021   0.044606  -0.001142   0.016836
   45  C  3 YZ   -0.011709  -0.004847  -0.023450  -0.002867   0.027704
   46  C  4  S    0.008892   0.006100  -0.000891  -0.034184   0.007323
   47  C  4  S   -0.349386  -0.265817   0.028835  -0.355297   0.015025
   48  C  4  X    0.484229   0.230206  -0.012148  -0.221023   0.069463
   49  C  4  Y   -0.355871   0.209438  -0.002420  -0.023806  -0.013076
   50  C  4  Z    0.161810   0.025314   0.717411   0.072294   0.455254
   51  C  4  S   -0.611106   0.074391  -0.005091   0.818297  -0.123041
   52  C  4  X   -0.303214  -0.026995   0.019784   0.637127  -0.136323
   53  C  4  Y    0.424316  -0.888604  -0.022042  -0.072998   0.051841
   54  C  4  Z   -0.158124  -0.012754  -0.759852  -0.107846  -0.885579
   55  C  4 XX   -0.034189   0.035285   0.003247  -0.090901   0.008191
   56  C  4 YY   -0.010801  -0.077700  -0.001838  -0.070649   0.014733
   57  C  4 ZZ    0.000761   0.003557   0.000264   0.053232  -0.009789
   58  C  4 XY    0.020455   0.006755   0.004229  -0.033706  -0.001261
   59  C  4 XZ   -0.007313  -0.005598  -0.031765   0.003679   0.030656
   60  C  4 YZ    0.005917   0.001488  -0.000638  -0.004013  -0.000351
   61  H  5  S   -0.206437  -0.343171  -0.001142   0.329499  -0.052835
   62  H  5  S    0.117289   0.206760  -0.042303   0.244293   0.017268
   63  H  6  S   -0.197386   0.116020   0.043823  -0.442662   0.014865
   64  H  6  S    0.213005  -0.071147  -0.004341  -0.035976   0.026235
   65  H  7  S    0.080642  -0.376045  -0.011762  -0.218089   0.048552
   66  H  7  S    0.205788  -0.361975  -0.012780  -0.142725   0.022236
   67  H  8  S   -0.033797   0.135548   0.004425  -0.438940   0.060237
   68  H  8  S   -0.074564   0.056325  -0.008693  -0.241545   0.062271

                     31         32         33         34         35
                    0.6632     0.6747     0.8112     0.8267     0.8558
                     A          A          A          A          A   
    1  O  1  S   -0.014641   0.041354   0.014057  -0.007550  -0.004397
    2  O  1  S    0.013259  -0.128762  -0.154646   0.149937   0.385721
    3  O  1  X    0.051153  -0.306018   0.235554  -0.212242  -0.417849
    4  O  1  Y   -0.267520   0.137912  -0.166766   0.127063   0.310949
    5  O  1  Z   -0.070927   0.057818  -0.040474   0.019783   0.090499
    6  O  1  S   -0.028099   0.099620  -0.564500   0.128755  -0.329752
    7  O  1  X    0.002494  -0.293162  -0.701466   0.493515   0.778532
    8  O  1  Y   -0.081221   0.062943   0.049284  -0.254699  -0.483041
    9  O  1  Z   -0.036874   0.056857   0.081120  -0.082765  -0.165286
   10  O  1 XX   -0.065329   0.081392  -0.172747   0.091018   0.145673
   11  O  1 YY   -0.006698   0.005644  -0.025597   0.061708   0.190290
   12  O  1 ZZ    0.013280  -0.038790  -0.016303   0.042873   0.132526
   13  O  1 XY    0.053988  -0.108090  -0.016809  -0.023452  -0.058970
   14  O  1 XZ    0.012288  -0.035368   0.018486  -0.009094  -0.014472
   15  O  1 YZ   -0.012309   0.025602   0.001901   0.007120   0.019762
   16  C  2  S    0.025687  -0.050379   0.001212  -0.032398  -0.044847
   17  C  2  S   -0.319308   0.405365   0.459895   0.217550   0.140414
   18  C  2  X    0.126516  -0.816143  -0.153910   0.133584   0.068948
   19  C  2  Y   -0.388912   0.280409  -0.722467  -0.128669  -0.395671
   20  C  2  Z   -0.172737   0.150017  -0.119051  -0.049138  -0.090881
   21  C  2  S    0.033013   0.585386   0.430778  -1.882414  -0.876372
   22  C  2  X    0.252879   1.165778   0.442017  -0.377364   0.182224
   23  C  2  Y    0.831452   0.295991   3.046126  -0.273229   0.384020
   24  C  2  Z    0.326185  -0.118728   0.480983   0.000285   0.066783
   25  C  2 XX    0.017752  -0.040087   0.167822  -0.096258  -0.060960
   26  C  2 YY   -0.012438   0.010239  -0.024621  -0.030592  -0.104724
   27  C  2 ZZ   -0.021488   0.043327   0.013965   0.069588   0.084723
   28  C  2 XY   -0.068583   0.108334  -0.044321   0.030715   0.122943
   29  C  2 XZ   -0.016974   0.034555  -0.024573   0.021871   0.041480
   30  C  2 YZ    0.007481  -0.015522   0.000637  -0.022640  -0.061936
   31  C  3  S   -0.050619  -0.023205   0.026217  -0.011777   0.002240
   32  C  3  S    0.129203   0.388694   0.532828  -0.217726  -0.000012
   33  C  3  X    0.533228   0.051949  -0.345065   0.250364  -0.037705
   34  C  3  Y   -0.187449  -0.264586   0.244577   0.230851  -0.068874
   35  C  3  Z    0.104311  -0.087299   0.032177   0.004644  -0.009920
   36  C  3  S   -0.400637  -0.855501  -1.488594   0.743697   0.164983
   37  C  3  X   -0.400623   0.765788   2.192186  -1.248769   0.200378
   38  C  3  Y    0.372570   0.387190  -1.004506  -1.369479   0.306362
   39  C  3  Z   -0.221219   0.124414  -0.184597  -0.011672   0.006599
   40  C  3 XX   -0.068473  -0.015111   0.014565  -0.060185   0.049334
   41  C  3 YY   -0.056652   0.003394   0.109667   0.039865  -0.046334
   42  C  3 ZZ    0.054976   0.033482  -0.018333  -0.001497   0.002628
   43  C  3 XY    0.043912  -0.017048  -0.030196  -0.006784   0.012468
   44  C  3 XZ    0.003138  -0.007240   0.000191   0.000300   0.003343
   45  C  3 YZ   -0.006092  -0.003531   0.001665   0.003297   0.001441
   46  C  4  S    0.065921   0.052043  -0.019522   0.002043  -0.002248
   47  C  4  S    0.161268   0.273397   0.465302   0.019191   0.243120
   48  C  4  X    0.325745   0.174516  -0.072509  -0.429024   0.196290
   49  C  4  Y   -0.215486  -0.117265  -0.020414  -0.920806   0.332031
   50  C  4  Z   -0.026898   0.013132  -0.014360  -0.010163  -0.001205
   51  C  4  S   -0.432455  -0.961911  -1.875028  -0.081230  -0.439164
   52  C  4  X   -0.481457  -0.051661   0.441890   1.247438  -0.382613
   53  C  4  Y    0.289180  -0.149426  -0.422339   2.462637  -0.844815
   54  C  4  Z    0.081777  -0.048069   0.050795   0.024669  -0.000216
   55  C  4 XX    0.084609   0.114065   0.002630   0.070640  -0.039840
   56  C  4 YY    0.113494   0.044067   0.004762  -0.067381   0.065248
   57  C  4 ZZ   -0.075653  -0.051379   0.033612   0.009050   0.013972
   58  C  4 XY   -0.068623   0.013050   0.027835   0.034934  -0.042838
   59  C  4 XZ   -0.008714   0.003777   0.003005   0.001535   0.002679
   60  C  4 YZ    0.000502   0.000281  -0.003578  -0.000949   0.003056
   61  H  5  S    0.151283   0.049083  -0.318723  -0.204018  -0.599862
   62  H  5  S    0.433191   0.189895   2.173116   0.343937   1.016426
   63  H  6  S   -0.337773   0.028063   0.176622   0.010408  -0.105218
   64  H  6  S   -0.025059   0.015235   0.591087   0.485541  -0.053898
   65  H  7  S    0.436713   0.177357  -0.159887  -0.368766   0.196454
   66  H  7  S   -0.049442  -0.019860   0.103691   1.827807  -0.697405
   67  H  8  S    0.219146   0.333343  -0.027843   0.347830  -0.291463
   68  H  8  S    0.220634  -0.058495   0.156760  -1.630691   0.844126

                     36         37         38         39         40
                    0.8705     0.9056     0.9482     0.9847     1.0603
                     A          A          A          A          A   
    1  O  1  S    0.000236   0.001958   0.002566  -0.003501   0.000123
    2  O  1  S   -0.053644   0.194840   0.180703  -0.044374   0.014069
    3  O  1  X   -0.005353  -0.009850  -0.054658  -0.012101   0.416829
    4  O  1  Y   -0.035371   0.031106   0.026076   0.176472   0.571894
    5  O  1  Z   -0.030633  -0.093248   0.028485  -0.905441   0.141694
    6  O  1  S    0.076819  -0.713774  -0.735017   0.262141  -0.026784
    7  O  1  X   -0.080920  -0.100043  -0.019168   0.069572  -0.681705
    8  O  1  Y   -0.061239  -0.167062  -0.128885  -0.184760  -0.989069
    9  O  1  Z    0.019135   0.098074  -0.037725   1.204828  -0.227834
   10  O  1 XX   -0.039131   0.016425   0.029919  -0.011182   0.089677
   11  O  1 YY   -0.019584   0.046117   0.024096  -0.022707  -0.067146
   12  O  1 ZZ    0.013413   0.118705   0.132695  -0.026157  -0.022980
   13  O  1 XY    0.018421  -0.010833   0.010319   0.003273   0.040243
   14  O  1 XZ    0.010775   0.014966   0.019714  -0.024766   0.002937
   15  O  1 YZ   -0.010110  -0.010434  -0.023801   0.022952  -0.014662
   16  C  2  S   -0.015418  -0.018322  -0.018216   0.005436   0.010656
   17  C  2  S   -0.295924  -0.786831  -1.200449   0.090832   0.374549
   18  C  2  X   -0.012230  -0.109448  -0.085052  -0.026050  -0.031416
   19  C  2  Y   -0.148629  -0.133493   0.103135   0.028979  -0.215349
   20  C  2  Z   -0.006403  -0.023898   0.034444   0.108097  -0.051315
   21  C  2  S    1.547217   2.532036   3.518865  -0.553952  -1.056453
   22  C  2  X    0.890735   0.833202   0.764428  -0.148132   0.217091
   23  C  2  Y    0.325437   1.238545   0.545976  -0.354452   1.199090
   24  C  2  Z   -0.003304   0.089085  -0.019188  -0.602874   0.244108
   25  C  2 XX    0.049119  -0.055284  -0.112386   0.008818  -0.099964
   26  C  2 YY   -0.073077  -0.060680  -0.016141  -0.006662   0.131106
   27  C  2 ZZ    0.002191   0.006495  -0.023565   0.002315   0.017426
   28  C  2 XY   -0.020793   0.009623   0.021674  -0.026735  -0.071861
   29  C  2 XZ   -0.001080   0.008002   0.014063   0.016911  -0.009682
   30  C  2 YZ   -0.014582  -0.006747   0.001059   0.009880   0.041990
   31  C  3  S    0.035994   0.012271   0.015185  -0.004933  -0.028761
   32  C  3  S   -0.522687  -0.106436   0.412004  -0.145151  -0.806484
   33  C  3  X   -0.069566  -0.446216  -0.247574   0.037281  -0.009079
   34  C  3  Y   -0.966987   0.170765   0.086238   0.035726  -0.006430
   35  C  3  Z   -0.026337   0.008556  -0.011729   0.038934  -0.026606
   36  C  3  S    0.270045   0.225396  -1.065857   0.549285   2.346202
   37  C  3  X    0.572523   2.513762   1.896589  -0.491427   0.773997
   38  C  3  Y    2.851434  -0.495862  -0.118422  -0.212548  -0.298695
   39  C  3  Z    0.063093  -0.060660  -0.004372   0.093744  -0.013824
   40  C  3 XX   -0.132012   0.005853   0.020385  -0.001637  -0.046441
   41  C  3 YY    0.111305   0.003474   0.024277  -0.026716  -0.102686
   42  C  3 ZZ   -0.078374  -0.007437  -0.001485   0.003842   0.034978
   43  C  3 XY   -0.008481  -0.095285  -0.093607  -0.003283  -0.054237
   44  C  3 XZ    0.003687  -0.002392  -0.003909   0.008797   0.003133
   45  C  3 YZ    0.004730  -0.000904  -0.011352   0.049031  -0.013606
   46  C  4  S   -0.005694   0.029636  -0.000733  -0.001548   0.015600
   47  C  4  S    0.009163  -0.210936   1.266776   0.250154   0.582356
   48  C  4  X   -0.045896  -0.659025   0.136820   0.014881  -0.005020
   49  C  4  Y   -0.040230   0.294031  -0.130398  -0.013255   0.108064
   50  C  4  Z    0.000280   0.006245   0.019210  -0.062380   0.007371
   51  C  4  S    0.645167  -0.814740  -3.407789  -0.432784  -2.324195
   52  C  4  X   -0.453279   1.699174   0.130663   0.057030   0.396577
   53  C  4  Y   -0.361612  -1.087229  -0.222376   0.297410  -0.773451
   54  C  4  Z   -0.007317  -0.018186  -0.047182   0.076148  -0.029867
   55  C  4 XX    0.079881  -0.020819   0.103647  -0.009133   0.028382
   56  C  4 YY   -0.056611   0.078292   0.011885   0.023223   0.026169
   57  C  4 ZZ   -0.006883  -0.098203   0.059229   0.022584   0.026700
   58  C  4 XY    0.009389   0.154338  -0.004102  -0.017688   0.038607
   59  C  4 XZ   -0.001119   0.002064  -0.006631   0.020165  -0.004413
   60  C  4 YZ    0.000205  -0.001227  -0.003477   0.021961  -0.002904
   61  H  5  S   -0.127220  -0.017740   0.302542  -0.076015   0.153825
   62  H  5  S    0.194309   0.361477  -0.793978  -0.132106   0.800794
   63  H  6  S    0.663286  -0.017349  -0.001437  -0.028486  -0.151242
   64  H  6  S   -2.553900   0.312883   0.292507   0.061594  -0.161152
   65  H  7  S   -0.107567   0.519105  -0.379543   0.023841   0.007564
   66  H  7  S   -0.059557  -1.091388   0.969350   0.268991  -0.022888
   67  H  8  S   -0.010813   0.605191  -0.221454  -0.132123   0.133907
   68  H  8  S    0.085073  -1.191880   0.768983   0.148395   0.356467

                     41         42         43         44         45
                    1.0819     1.1475     1.2390     1.3630     1.4326
                     A          A          A          A          A   
    1  O  1  S    0.009599   0.001182  -0.033061  -0.017821  -0.029963
    2  O  1  S   -0.086108   0.129907  -0.339120  -0.085230  -0.515168
    3  O  1  X   -0.327349  -0.101682   0.133198   0.125183  -0.087014
    4  O  1  Y    0.086724  -0.435496   0.091924   0.009165   0.052885
    5  O  1  Z   -0.106656  -0.007775  -0.036126   0.028790   0.007274
    6  O  1  S   -0.636626  -0.182737   1.513719   0.759679   1.590553
    7  O  1  X    0.307343   0.322001   0.113462   0.015251   0.455588
    8  O  1  Y   -0.331722   0.921543  -0.262662  -0.070784  -0.212108
    9  O  1  Z    0.189794   0.032910  -0.049153   0.033650  -0.273093
   10  O  1 XX   -0.026205   0.009522  -0.140210  -0.037038  -0.111850
   11  O  1 YY   -0.039157   0.094828  -0.051797  -0.054325  -0.069261
   12  O  1 ZZ    0.064502  -0.028798  -0.150212  -0.028205  -0.216599
   13  O  1 XY    0.041705  -0.047135   0.028874   0.046804  -0.009865
   14  O  1 XZ    0.004514   0.004136  -0.010349  -0.042787   0.202996
   15  O  1 YZ    0.003015   0.035304  -0.063502   0.185401  -0.113043
   16  C  2  S    0.000762   0.024121  -0.024804  -0.011065  -0.008627
   17  C  2  S    0.279719   0.532112  -0.242927  -0.176474  -0.053740
   18  C  2  X    0.270649   0.173918   0.165809   0.036804  -0.019523
   19  C  2  Y   -0.200787   0.144802   0.033695   0.042726   0.018330
   20  C  2  Z   -0.019182  -0.006878   0.042914  -0.010543  -0.104522
   21  C  2  S    0.219631  -1.449400   2.116939   0.885304  -0.928578
   22  C  2  X   -0.602643  -1.338510   1.823871   0.908312   0.430247
   23  C  2  Y    2.115831  -1.162931  -0.988005  -0.933625  -0.465857
   24  C  2  Z    0.206156  -0.035146  -0.320281  -0.272885   0.045244
   25  C  2 XX   -0.020443   0.057406   0.033507   0.088920  -0.084795
   26  C  2 YY    0.136065  -0.026121   0.034298  -0.077603  -0.010112
   27  C  2 ZZ   -0.044103   0.001651  -0.075721  -0.027864   0.082989
   28  C  2 XY    0.087356   0.011514   0.087731  -0.011532   0.117890
   29  C  2 XZ    0.088935  -0.023931  -0.141798   0.375514  -0.299407
   30  C  2 YZ    0.069735   0.013061  -0.164413   0.252091   0.156184
   31  C  3  S   -0.003043  -0.045139   0.028730   0.014175  -0.005312
   32  C  3  S    0.069732  -1.299242   0.733271   0.288527  -0.100712
   33  C  3  X   -0.129610  -0.190554  -0.044487   0.016212  -0.012082
   34  C  3  Y   -0.007596   0.089340  -0.345898  -0.144891   0.021340
   35  C  3  Z    0.021596   0.024781  -0.022999   0.014392   0.157820
   36  C  3  S    0.118664   5.843136  -2.996015  -1.376353   0.496125
   37  C  3  X    2.293285   0.884439   0.331640  -0.449608  -0.071717
   38  C  3  Y   -0.296262  -0.510988   4.132167   1.979381  -0.292207
   39  C  3  Z   -0.164038  -0.036829   0.205246   0.085917  -0.081764
   40  C  3 XX    0.005756   0.006549   0.128632   0.036927   0.025913
   41  C  3 YY    0.025951  -0.129456  -0.065506  -0.015378  -0.032649
   42  C  3 ZZ    0.001374   0.004089  -0.039548  -0.031731   0.006362
   43  C  3 XY    0.042203  -0.011007   0.009059   0.014014  -0.000384
   44  C  3 XZ   -0.075313  -0.002605   0.183392  -0.501908  -0.107125
   45  C  3 YZ   -0.028273   0.006576   0.060773  -0.058643   0.558313
   46  C  4  S    0.003769   0.025592  -0.011979  -0.009098   0.005472
   47  C  4  S   -0.345754   1.045443  -0.233951  -0.050511   0.064118
   48  C  4  X    0.347135  -0.037563  -0.127539  -0.121318  -0.003528
   49  C  4  Y    0.152632   0.145894   0.033160  -0.006261  -0.022002
   50  C  4  Z    0.002063   0.000566  -0.038546   0.116646   0.085585
   51  C  4  S   -1.057226  -4.198140   2.741280   1.596101  -0.338977
   52  C  4  X   -0.779183   0.705396  -1.586518  -0.634331   0.324169
   53  C  4  Y   -1.881910  -1.445033  -1.430468  -0.229149   0.161188
   54  C  4  Z    0.047812  -0.019811  -0.037224  -0.023845   0.012638
   55  C  4 XX    0.055054   0.040390   0.130901   0.046516   0.005312
   56  C  4 YY   -0.124947   0.037745  -0.080134   0.004829   0.025059
   57  C  4 ZZ    0.019043   0.037059  -0.078781  -0.060686  -0.026270
   58  C  4 XY    0.092624   0.113420  -0.005359  -0.033843  -0.004985
   59  C  4 XZ    0.027883   0.005880  -0.056511   0.231656   0.447466
   60  C  4 YZ   -0.028995   0.000726   0.111024  -0.276865   0.015639
   61  H  5  S    0.586203  -0.118150  -0.416575  -0.314006  -0.009104
   62  H  5  S    0.699718  -0.329254  -0.569476  -0.468588  -0.088586
   63  H  6  S    0.099073  -0.322535  -0.736376  -0.343715   0.055156
   64  H  6  S    0.088470  -0.470992  -1.240436  -0.633930   0.065532
   65  H  7  S   -0.356879  -0.129246  -0.557012  -0.191246   0.064157
   66  H  7  S   -0.623336   0.096943  -0.816076  -0.231899   0.060040
   67  H  8  S    0.468013   0.305435   0.395172   0.077434  -0.055169
   68  H  8  S    0.598416   0.613309   0.280839   0.019474  -0.107757

                     46         47         48         49         50
                    1.5406     1.5469     1.6574     1.7653     1.7936
                     A          A          A          A          A   
    1  O  1  S   -0.086775  -0.030599   0.003545  -0.044022   0.005417
    2  O  1  S   -1.508620  -0.496852   0.073760  -0.766538   0.127875
    3  O  1  X   -0.189976  -0.042407   0.021258  -0.048935   0.159720
    4  O  1  Y    0.113853   0.060171  -0.011945  -0.017437   0.193578
    5  O  1  Z    0.112175  -0.075037   0.037137   0.017496   0.018217
    6  O  1  S    4.902115   1.713233  -0.210337   2.869182  -0.361016
    7  O  1  X    1.440295   0.446730  -0.083299   0.846308  -0.324207
    8  O  1  Y   -0.676629  -0.234569   0.038380  -0.225687  -0.302101
    9  O  1  Z   -0.286174  -0.159909  -0.062275  -0.165972  -0.019890
   10  O  1 XX   -0.503622  -0.077667   0.053102  -0.356727  -0.407205
   11  O  1 YY   -0.187048  -0.038582  -0.092322  -0.500506   0.209876
   12  O  1 ZZ   -0.389754  -0.241130   0.087348   0.395920   0.278304
   13  O  1 XY    0.191292  -0.021577   0.002513  -0.206055  -0.365050
   14  O  1 XZ   -0.155614   0.426053   0.137183   0.072892   0.004650
   15  O  1 YZ    0.106149   0.046583   0.284096  -0.087471   0.006270
   16  C  2  S   -0.015853  -0.007228   0.001008   0.013691   0.017570
   17  C  2  S   -0.090504  -0.067121  -0.016441   0.389448  -0.153845
   18  C  2  X   -0.035367  -0.009880  -0.005360   0.237858  -0.081120
   19  C  2  Y    0.026634   0.041202   0.002849   0.170792   0.073470
   20  C  2  Z    0.065692  -0.139526  -0.033243   0.011648   0.023793
   21  C  2  S   -3.292473  -0.740551   0.206766  -2.317494   0.057633
   22  C  2  X    1.272633   0.688915   0.008326   0.596122   0.260232
   23  C  2  Y   -1.698341  -0.692440   0.000585  -1.803043   0.727121
   24  C  2  Z   -0.477638  -0.095323   0.199466  -0.338145   0.107133
   25  C  2 XX    0.011938  -0.026768   0.045827  -0.176327   0.319040
   26  C  2 YY    0.131767  -0.154650  -0.089439  -0.193670  -0.390827
   27  C  2 ZZ   -0.182855   0.166578   0.045656   0.432175   0.041350
   28  C  2 XY    0.122848   0.177565  -0.019969  -0.138228   0.211403
   29  C  2 XZ    0.185792  -0.125231   0.233130   0.104652   0.003669
   30  C  2 YZ   -0.175026   0.506582   0.239027  -0.103615  -0.121769
   31  C  3  S   -0.022989   0.001675   0.003193   0.000008   0.018189
   32  C  3  S   -0.546728  -0.010571   0.063779   0.164240  -0.243494
   33  C  3  X   -0.006042   0.020413   0.005116  -0.109452   0.265016
   34  C  3  Y    0.139125  -0.011859  -0.018633  -0.133208   0.009220
   35  C  3  Z   -0.018425  -0.045211  -0.031873  -0.002014  -0.002449
   36  C  3  S    2.234949  -0.048509  -0.297463   0.078961  -0.359659
   37  C  3  X   -0.568314  -0.319977  -0.112464  -1.171503  -0.347598
   38  C  3  Y   -0.894110   0.345413   0.232438   0.896343   0.070004
   39  C  3  Z    0.066113  -0.041603  -0.194373   0.094339   0.017320
   40  C  3 XX    0.076757   0.047977  -0.003832  -0.172067   0.190236
   41  C  3 YY    0.032043  -0.017560   0.005390  -0.119444  -0.157252
   42  C  3 ZZ   -0.121207  -0.043296  -0.004458   0.359279  -0.022347
   43  C  3 XY    0.006879   0.019767   0.014049  -0.193464   0.306572
   44  C  3 XZ    0.022842   0.022422   0.106188  -0.001490  -0.004633
   45  C  3 YZ   -0.062367  -0.295931  -0.070417  -0.009987  -0.004767
   46  C  4  S    0.013572   0.000280  -0.002437   0.007022  -0.001937
   47  C  4  S    0.318857   0.014745  -0.021155   0.056776   0.032075
   48  C  4  X   -0.101520  -0.043525  -0.020298  -0.067775  -0.117372
   49  C  4  Y   -0.079705  -0.017711   0.004150   0.057813  -0.069160
   50  C  4  Z   -0.028068  -0.074426  -0.033137  -0.005314   0.010639
   51  C  4  S   -1.118068   0.329761   0.290299   0.870574   0.271817
   52  C  4  X    1.254028   0.040845  -0.130265  -0.305163  -0.169593
   53  C  4  Y    0.639521   0.102152   0.006376   0.383353  -0.055504
   54  C  4  Z    0.012049   0.082253   0.086981   0.004197  -0.022519
   55  C  4 XX   -0.004273  -0.000938  -0.009706   0.000585  -0.230217
   56  C  4 YY    0.142752   0.040782  -0.005956  -0.198671   0.217080
   57  C  4 ZZ   -0.138370  -0.036798   0.018805   0.213533   0.054341
   58  C  4 XY    0.015663  -0.002370  -0.003393  -0.076101  -0.045564
   59  C  4 XZ   -0.041350  -0.366463   0.267353  -0.024303   0.050659
   60  C  4 YZ    0.070453  -0.112576   0.812137  -0.047445  -0.014956
   61  H  5  S   -0.056561  -0.068718   0.003003   0.007955   0.557128
   62  H  5  S   -0.324841  -0.188424  -0.019514  -0.457729   0.124866
   63  H  6  S    0.023412  -0.033335  -0.030893  -0.136541   0.147302
   64  H  6  S    0.121081  -0.136842  -0.061280  -0.305227  -0.089825
   65  H  7  S    0.182502  -0.017557  -0.024094   0.201347  -0.259298
   66  H  7  S    0.279851  -0.022918  -0.015624   0.037383   0.068233
   67  H  8  S   -0.196464  -0.026171   0.010565   0.010506   0.188729
   68  H  8  S   -0.471317  -0.084000   0.011021  -0.009934   0.022122

                     51         52         53         54         55
                    1.8439     1.9080     1.9873     2.0394     2.1335
                     A          A          A          A          A   
    1  O  1  S    0.008248  -0.001378  -0.007572   0.002194   0.004525
    2  O  1  S    0.094197   0.105760   0.061985   0.269782  -0.032618
    3  O  1  X   -0.028914   0.156611   0.005818   0.179106  -0.112902
    4  O  1  Y    0.021401  -0.134603  -0.122328   0.004452   0.091445
    5  O  1  Z    0.048565  -0.034542  -0.026849  -0.041153   0.079236
    6  O  1  S   -0.475115  -0.075380   0.067735  -0.662597  -0.326940
    7  O  1  X   -0.126884  -0.086761   0.165847  -0.322082  -0.117753
    8  O  1  Y    0.039300   0.047053   0.236316  -0.126625  -0.033846
    9  O  1  Z   -0.041938   0.009881   0.037907   0.072193  -0.145399
   10  O  1 XX    0.089733   0.068045   0.048198  -0.245263  -0.133567
   11  O  1 YY   -0.247894   0.208021  -0.491144   0.387551   0.022893
   12  O  1 ZZ    0.206543  -0.162373   0.434413  -0.017375   0.044227
   13  O  1 XY    0.026095   0.196833  -0.189402  -0.229494  -0.062962
   14  O  1 XZ    0.265779   0.002014   0.022987   0.111294  -0.335342
   15  O  1 YZ    0.727889   0.175735  -0.189890   0.184711  -0.146187
   16  C  2  S   -0.003178   0.007227   0.012595  -0.005795  -0.032052
   17  C  2  S   -0.012240  -0.227691   0.095174   0.080718  -0.148036
   18  C  2  X   -0.034327   0.035888  -0.088655   0.255771  -0.031555
   19  C  2  Y   -0.026281  -0.091121  -0.170738   0.076175   0.008652
   20  C  2  Z    0.087706   0.005016  -0.020198  -0.026459   0.065680
   21  C  2  S    0.262453   0.862637  -1.131480   0.469946   0.871004
   22  C  2  X   -0.171963   0.444118  -0.726233  -0.000635   0.151023
   23  C  2  Y    0.290789   0.349403  -0.651200   0.896557   0.409539
   24  C  2  Z    0.185062  -0.011359  -0.088291   0.050440   0.316549
   25  C  2 XX    0.068257  -0.184751  -0.189001  -0.040048   0.272579
   26  C  2 YY    0.028131   0.210808   0.383329   0.055546  -0.081997
   27  C  2 ZZ   -0.116251   0.077644  -0.262593  -0.005081  -0.253310
   28  C  2 XY   -0.056157   0.238546   0.075878   0.213491  -0.079540
[...]

          ATOMIC WEIGHTS (AMU)

    1     O                15.99491
    2     C                12.00000
    3     C                12.00000
    4     C                12.00000
    5     H                 1.00782
    6     H                 1.00782
    7     H                 1.00782
    8     H                 1.00782

 MODES    1 TO    6 ARE TAKEN AS ROTATIONS AND TRANSLATIONS.

 ANALYZING SYMMETRY OF NORMAL MODES...

     FREQUENCIES IN CM**-1, IR INTENSITIES IN DEBYE**2/AMU-ANGSTROM**2,
     REDUCED MASSES IN AMU.

                            1           2           3           4           5
       FREQUENCY:        10.29        6.25        0.07        0.01        0.03  
        SYMMETRY:         A           A           A           A           A   
    REDUCED MASS:      5.52870     4.70719     7.02274     7.01241     6.96439
    IR INTENSITY:      0.10049     0.08317     0.00000     0.00000     0.00000

  1   O            X  0.00521128  0.02460289  0.07425772  0.11105500 -0.00063581
                   Y -0.01264157  0.15583045 -0.00136472  0.00150684  0.13253967
                   Z  0.16588090  0.01082511  0.11164579 -0.07467756  0.00205899
  2   C            X  0.00100437 -0.02799892  0.07422142  0.11108191 -0.00028923
                   Y -0.00303711  0.05821565 -0.00139620  0.00151098  0.13319349
                   Z  0.04130302  0.00478132  0.11128519 -0.07437943  0.00205264
  3   C            X -0.00201000  0.03415896  0.07425359  0.11107350 -0.00070245
                   Y  0.00353613 -0.06091663 -0.00143344  0.00152042  0.13400062
                   Z -0.04316717 -0.00534947  0.11086023 -0.07406761  0.00196767
  4   C            X -0.00458507 -0.02968534  0.07420327  0.11109735 -0.00027538
                   Y  0.01298595 -0.16517203 -0.00146799  0.00152165  0.13469268
                   Z -0.18119788 -0.01172162  0.11042421 -0.07370603  0.00198176
  5   H            X -0.00065738 -0.12956400  0.07416287  0.11110670  0.00039866
                   Y  0.00138969  0.05298553 -0.00138944  0.00150567  0.13322333
                   Z -0.01833823  0.00662599  0.11124766 -0.07431782  0.00211482
  6   H            X -0.00142348  0.13341999  0.07429202  0.11104969 -0.00136336
                   Y  0.00003965 -0.05910454 -0.00142782  0.00152138  0.13399381
                   Z  0.01222003 -0.00730434  0.11091237 -0.07414012  0.00189812
  7   H            X -0.00490652 -0.12933130  0.07412797  0.11112431  0.00038526
                   Y  0.01628939 -0.16454509 -0.00145463  0.00151437  0.13468301
                   Z -0.23442881 -0.00958244  0.11037554 -0.07363450  0.00205456
  8   H            X -0.00633088  0.01415575  0.07420974  0.11109400 -0.00056860
                   Y  0.01776688 -0.25413186 -0.00149514  0.00152722  0.13529207
                   Z -0.24588717 -0.01923600  0.11009529 -0.07346278  0.00192494

 TRANS. SAYVETZ    X  0.00284304 -0.00097318  4.15900000  6.22319982 -0.02653143
                   Y -0.00461789  0.04989791 -0.07921237  0.08485449  7.48399738
                   Z -0.03373490 -0.00405806  6.22269431 -4.15816571  0.11301308
               TOTAL  0.03416798  0.05007211  7.48501703  7.48503563  7.48489764

   ROT. SAYVETZ    X  2.67662944 -0.57828348  0.00644398 -0.00580394  0.00357396
                   Y 19.35682378  1.51931981  0.07066250 -0.05570231  0.00431969
                   Z  1.37259579-20.61246721 -0.00722596  0.00158067  0.13830880
               TOTAL 19.58915494 20.67647332  0.07132271  0.05602617  0.13842239

                            6           7           8           9          10
       FREQUENCY:        27.99      173.83      320.69      572.43      612.20  
        SYMMETRY:         A           A           A           A           A   
    REDUCED MASS:      1.63834     3.46730     2.69827     4.85000     1.18299
    IR INTENSITY:      0.01663     0.09466     0.22148     0.13753     0.17542

  1   O            X  0.00011477  0.00540956 -0.02563675  0.15056942 -0.00921956
                   Y -0.00209535 -0.00872887 -0.09804565  0.03693417 -0.00172482
                   Z  0.00981235  0.12153565 -0.00612982 -0.00274175 -0.00054466
  2   C            X -0.00339531 -0.00411900  0.06603877  0.06480633 -0.00301746
                   Y  0.00922338  0.00912078  0.08396023 -0.09315289  0.00355081
                   Z -0.11806638 -0.13231056  0.00510693 -0.00614504  0.02796200
  3   C            X  0.00426298 -0.00353011  0.04371862 -0.09286970  0.00270008
                   Y -0.00788451  0.00835376  0.13264933  0.02911383  0.00540939
                   Z  0.14228519 -0.12606951  0.00643861 -0.00057644 -0.11079336
  4   C            X -0.00058424  0.00119765 -0.08161746 -0.12753495  0.00787430
                   Y  0.00051027 -0.00651860 -0.07271491  0.02461955 -0.00242992
                   Z -0.02262004  0.10306291 -0.00253293  0.00545165  0.01293109
  5   H            X -0.01310660 -0.01173521  0.22302148  0.03105817  0.01139924
                   Y  0.03391721  0.02352053  0.08808231 -0.09579653 -0.02377679
                   Z -0.45026176 -0.32703736  0.00475222  0.01854827  0.39745653
  6   H            X  0.01359947 -0.00418237  0.15797945 -0.24256099  0.02285066
                   Y -0.02839349  0.01143065  0.13306583  0.02089180 -0.02106801
                   Z  0.46934406 -0.17498562  0.00068084  0.02969763  0.31720956
  7   H            X -0.00963435  0.00257489 -0.34142659 -0.24059631  0.00438895
                   Y  0.02097673 -0.01200646 -0.07207736  0.02772421  0.02730491
                   Z -0.35118855  0.19116213  0.00585436 -0.02201319 -0.46674956
  8   H            X  0.00415797  0.00423279  0.03216825 -0.08474243  0.01770230
                   Y -0.01261732 -0.01509936 -0.30640219 -0.06951484 -0.03284689
                   Z  0.16131987  0.23223418 -0.02137820  0.03256793  0.59296405

 TRANS. SAYVETZ    X  0.00021440 -0.00007344 -0.00007447  0.00012213 -0.00000094
                   Y  0.00266649 -0.00023940 -0.00005803  0.00011608 -0.00000607
                   Z  0.00401021  0.00090386 -0.00006427  0.00016875 -0.00005451
               TOTAL  0.00482057  0.00093791  0.00011421  0.00023846  0.00005486

   ROT. SAYVETZ    X  5.80559262  0.03597621  0.01734727  0.00068313  0.00871467
                   Y -3.15937213  0.01755229 -0.01066532  0.00249908 -0.00173058
                   Z -0.35722617 -0.00315151  0.00772739  0.00610535  0.00013992
               TOTAL  6.61922567  0.04015349  0.02178048  0.00663230  0.00888594

                           11          12          13          14          15
       FREQUENCY:       928.97      991.99     1023.24     1043.97     1180.03  
        SYMMETRY:         A           A           A           A           A   
    REDUCED MASS:      1.57938     1.34051     1.63049     1.17320     2.00957
    IR INTENSITY:      0.51082     0.83965     0.19796     0.19532     0.86393

  1   O            X  0.02339516 -0.00037967  0.00135303  0.00072560  0.01639989
                   Y -0.02118395  0.00067546 -0.00235866 -0.00156533  0.01905853
                   Z -0.00217713 -0.00813180  0.03397050  0.02387198  0.00055169
  2   C            X  0.07455739  0.00093698 -0.00510953 -0.00451583 -0.08107922
                   Y  0.09504808 -0.00233309  0.00944112  0.00674230 -0.13330123
                   Z  0.00384239  0.02913341 -0.13686408 -0.10734685 -0.00581065
  3   C            X -0.05679113  0.00078155  0.00299586 -0.00000929  0.06341794
                   Y -0.04796131 -0.00199325 -0.00707431  0.00176429  0.11681233
                   Z -0.00138019  0.03339571  0.11618453 -0.01976150  0.00593555
  4   C            X -0.09053951 -0.00291945 -0.00033176  0.00067771 -0.04486868
                   Y -0.05675932  0.00912777  0.00146841  0.00075493 -0.01986762
                   Z -0.00188882 -0.14289778 -0.02741019 -0.00768025 -0.00029994
  5   H            X  0.19360994 -0.00379386  0.01755891  0.01404913 -0.13125059
                   Y  0.09992783  0.00772950 -0.03955752 -0.03537001 -0.13968852
                   Z  0.00426171 -0.10628406  0.52471220  0.46140691 -0.00836829
  6   H            X  0.22200556 -0.00111215 -0.01118483  0.01552985  0.57160449
                   Y -0.04747084 -0.00007563  0.03208595 -0.03705180  0.12897099
                   Z -0.00416930  0.00241816 -0.50798802  0.59960637 -0.00626884
  7   H            X  0.42122374  0.01097944 -0.00189796  0.00800897  0.17333482
                   Y -0.05203883 -0.03546634  0.00827770 -0.02687151 -0.01706392
                   Z -0.00767436  0.57323280 -0.13703310  0.43582931 -0.00485288
  8   H            X -0.34156523  0.01424596  0.00316972 -0.00329377 -0.12942980
                   Y  0.45103716 -0.04008637 -0.00904145  0.01385446  0.15813989
                   Z  0.03543792  0.61666166  0.15377586 -0.27079402  0.01281686

 TRANS. SAYVETZ    X  0.00007412 -0.00000538  0.00000210 -0.00000055  0.00000357
                   Y  0.00008197 -0.00000913 -0.00000375 -0.00000636 -0.00006027
                   Z  0.00013143  0.00003548  0.00000710  0.00000930 -0.00000156
               TOTAL  0.00017172  0.00003703  0.00000830  0.00001128  0.00006040

   ROT. SAYVETZ    X -0.00062577 -0.00234258 -0.00515973 -0.00240199 -0.00016560
                   Y -0.00178260  0.00281259  0.00080088  0.00189975 -0.00130873
                   Z -0.00186463  0.00009654  0.00030901  0.00048714 -0.00107736
               TOTAL  0.00265445  0.00366165  0.00523065  0.00310096  0.00170320

                           16          17          18          19          20
       FREQUENCY:      1308.81     1409.78     1474.18     1700.52     1804.26  
        SYMMETRY:         A           A           A           A           A   
    REDUCED MASS:      1.47996     1.19566     1.22432     4.03748     9.44379
    IR INTENSITY:      0.05526     0.14110     0.23131     0.05639     5.00198

  1   O            X  0.01012201 -0.02023030  0.03441395 -0.03246072 -0.13047475
                   Y -0.00410671  0.04927147 -0.03761607  0.01356925  0.06768387
                   Z -0.00063374  0.00435416 -0.00402145  0.00217353  0.00962207
  2   C            X  0.00547411 -0.03311682  0.02459139  0.01464869  0.20484398
                   Y  0.01922047 -0.04944919  0.04362941 -0.01286940 -0.09004245
                   Z  0.00120750 -0.00248452  0.00258889 -0.00166443 -0.01374318
  3   C            X -0.03971199 -0.07696128 -0.09475942  0.16975039 -0.03349977
                   Y -0.11956803  0.01640846  0.01817524 -0.07068891  0.01308500
                   Z -0.00632801  0.00270296  0.00361496 -0.00848761  0.00178985
  4   C            X -0.01322389  0.02496405 -0.01304575 -0.15671161  0.00836672
                   Y  0.11098320 -0.00510447  0.02257769  0.08755457 -0.00760104
                   Z  0.00725577 -0.00084558  0.00168926  0.00891994 -0.00060679
  5   H            X  0.09164202  0.76835508 -0.47858222  0.07034584 -0.13450590
                   Y  0.01947452 -0.02479092  0.04159404 -0.01433024 -0.08157634
                   Z -0.00136298 -0.02909983  0.01934673 -0.00287061 -0.00169942
  6   H            X  0.65567008  0.06886433  0.18400211 -0.14092813  0.08466367
                   Y -0.12008511  0.02328625  0.02454066 -0.09884921  0.00863240
                   Z -0.02372531 -0.00080140 -0.00339000 -0.00244456 -0.00185088
  7   H            X -0.41104747  0.31144718  0.48721059  0.26732397 -0.01948056
                   Y  0.11545695 -0.02073114  0.00953248  0.10129126 -0.00491122
                   Z  0.01564960 -0.00832764 -0.01042643  0.00039269  0.00025433
  8   H            X  0.06826680  0.18588172  0.25209448 -0.01126566  0.00017599
                   Y -0.07627442 -0.30560625 -0.48336845 -0.25098368  0.01053171
                   Z -0.00586098 -0.02335410 -0.03550511 -0.01496246  0.00009448

 TRANS. SAYVETZ    X  0.00005622  0.00004072  0.00008755 -0.00002933 -0.00008856
                   Y  0.00003261 -0.00005706  0.00003073  0.00006519  0.00004530
                   Z  0.00006711  0.00005386  0.00018518 -0.00006028 -0.00004390
               TOTAL  0.00009342  0.00008840  0.00020713  0.00009350  0.00010873

   ROT. SAYVETZ    X -0.00055750  0.00020867  0.00081919  0.00011521 -0.00014254
                   Y -0.00064619 -0.00112012  0.00064247 -0.00022697  0.00021358
                   Z -0.00240820  0.00164249 -0.00108780  0.00117802 -0.00032338
               TOTAL  0.00255496  0.00199899  0.00150571  0.00120520  0.00041293

                           21          22          23          24
       FREQUENCY:      2895.93     3157.71     3193.67     3247.53  
        SYMMETRY:         A           A           A           A   
    REDUCED MASS:      1.08409     1.06020     1.09399     1.11480
    IR INTENSITY:      2.52197     0.15038     0.06641     0.18585

  1   O            X  0.00192436  0.00054331 -0.00085721 -0.00010335
                   Y -0.00029869 -0.00006790  0.00033784  0.00006186
                   Z -0.00009294 -0.00002388  0.00005802  0.00000866
  2   C            X -0.00229350 -0.00117710  0.00278965  0.00044262
                   Y -0.07966624 -0.00101114 -0.00030009 -0.00009183
                   Z -0.00580971 -0.00003324 -0.00012306 -0.00002373
  3   C            X  0.00279395 -0.00561017  0.00438630  0.00223428
                   Y  0.00012177 -0.00561678 -0.08192922 -0.01529904
                   Z -0.00007283 -0.00023390 -0.00523263 -0.00100574
  4   C            X -0.00095453  0.04471046  0.00092268 -0.06143807
                   Y  0.00071571 -0.04912722  0.01987391 -0.06860077
                   Z  0.00006545 -0.00401895  0.00121872 -0.00295706
  5   H            X -0.01910123  0.00250944  0.00010449  0.00299855
                   Y  0.95411870  0.01150958  0.00463605  0.00385434
                   Z  0.07131577  0.00075495  0.00039222  0.00020002
  6   H            X  0.00010674 -0.00054875 -0.01148939 -0.00356676
                   Y -0.00676895  0.10340394  0.93269584  0.15459733
                   Z -0.00046653  0.00647551  0.05881004  0.00978099
  7   H            X -0.00632227  0.01272055 -0.00233028 -0.00435157
                   Y -0.01048272  0.79867358 -0.16511747  0.49499704
                   Z -0.00054691  0.04940641 -0.01023488  0.03090157
  8   H            X  0.00016778 -0.47488315 -0.06912105  0.70622655
                   Y  0.00647110 -0.24863913 -0.03511704  0.34563890
                   Z  0.00038616 -0.00531851 -0.00068386  0.00644843

 TRANS. SAYVETZ    X -0.00001491 -0.00003457 -0.00001180  0.00000733
                   Y -0.00000287  0.00000346  0.00000417 -0.00000472
                   Z -0.00005004 -0.00009511 -0.00005425  0.00000146
               TOTAL  0.00005230  0.00010126  0.00005568  0.00000884

   ROT. SAYVETZ    X  0.00025861  0.00005307  0.00016109 -0.00001288
                   Y  0.00013605  0.00005873  0.00008445  0.00010338
                   Z -0.00017964 -0.00010522 -0.00002738 -0.00029402
               TOTAL  0.00034302  0.00013167  0.00018393  0.00031193

 REFERENCE ON SAYVETZ CONDITIONS - A. SAYVETZ, J.CHEM.PHYS., 7, 383-389(1939).

 NOTE - THE MODES J,K ARE ORTHONORMALIZED ACCORDING TO
 SUM ON I   M(I) * (X(I,J)*X(I,K) + Y(I,J)*Y(I,K) + Z(I,J)*Z(I,K)) = DELTA(J,K)

  MODE FREQ(CM**-1)  SYMMETRY  RED. MASS  IR INTENS.
     1      10.290    A        5.528697    0.100494
     2       6.250    A        4.707192    0.083168
     3       0.071    A        7.022740    0.000004
     4       0.014    A        7.012411    0.000001
     5       0.029    A        6.964389    0.000004
     6      27.991    A        1.638339    0.016627
     7     173.830    A        3.467297    0.094656
     8     320.689    A        2.698269    0.221477
     9     572.432    A        4.850000    0.137531
    10     612.199    A        1.182995    0.175423
    11     928.969    A        1.579385    0.510815
    12     991.994    A        1.340507    0.839652
    13    1023.244    A        1.630493    0.197965
    14    1043.975    A        1.173202    0.195323
    15    1180.028    A        2.009574    0.863934
    16    1308.807    A        1.479963    0.055256
    17    1409.780    A        1.195656    0.141097
    18    1474.182    A        1.224316    0.231314
    19    1700.519    A        4.037478    0.056394
    20    1804.257    A        9.443792    5.001981
    21    2895.926    A        1.084093    2.521972
    22    3157.707    A        1.060204    0.150382
    23    3193.672    A        1.093991    0.066408
    24    3247.526    A        1.114800    0.185854

     -------------------------------
     THERMOCHEMISTRY AT T=  298.15 K
     -------------------------------

 USING IDEAL GAS, RIGID ROTOR, HARMONIC NORMAL MODE APPROXIMATIONS.
 P=  1.01325E+05 PASCAL.
 ALL FREQUENCIES ARE SCALED BY   1.00000
 THE MOMENTS OF INERTIA ARE (IN AMU*BOHR**2)
             37.67116           389.88377           427.54042
 THE ROTATIONAL SYMMETRY NUMBER IS  1.0
 THE ROTATIONAL CONSTANTS ARE (IN GHZ)
     47.86389     4.62468     4.21735
      7 -     24 VIBRATIONAL MODES ARE USED IN THERMOCHEMISTRY.
 THE HARMONIC ZERO POINT ENERGY IS (SCALED BY   1.000)
        0.061601 HARTREE/MOLECULE    13519.867523 CM**-1/MOLECULE 
       38.655280 KCAL/MOL              161.733691 KJ/MOL

               Q               LN Q
 ELEC.     1.00000E+00       0.000000
 TRANS.    1.64832E+07      16.617850
 ROT.      2.83663E+04      10.252956
 VIB.      2.62468E+00       0.964958
 TOT.      1.22721E+12      27.835764

              E         H         G         CV        CP        S
           KJ/MOL    KJ/MOL    KJ/MOL   J/MOL-K   J/MOL-K   J/MOL-K
 ELEC.      0.000     0.000     0.000     0.000     0.000     0.000
 TRANS.     3.718     6.197   -41.195    12.472    20.786   158.954
 ROT.       3.718     3.718   -25.416    12.472    12.472    97.719
 VIB.     165.733   165.733   159.342    32.407    32.407    21.435
 TOTAL    173.169   175.648    92.730    57.350    65.665   278.108
 VIB. THERMAL CORRECTION E(T)-E(0) = H(T)-H(0) =      3998.916 J/MOL

              E         H         G         CV        CP        S
         KCAL/MOL  KCAL/MOL  KCAL/MOL CAL/MOL-K CAL/MOL-K CAL/MOL-K
 ELEC.      0.000     0.000     0.000     0.000     0.000     0.000
 TRANS.     0.889     1.481    -9.846     2.981     4.968    37.991
 ROT.       0.889     0.889    -6.075     2.981     2.981    23.355
 VIB.      39.611    39.611    38.084     7.746     7.746     5.123
 TOTAL     41.388    41.981    22.163    13.707    15.694    66.469
 VIB. THERMAL CORRECTION E(T)-E(0) = H(T)-H(0) =       955.764 CAL/MOL
 ......END OF NORMAL COORDINATE ANALYSIS......
 STEP CPU TIME =     0.01 TOTAL CPU TIME =        790.6 (     13.2 MIN)
 TOTAL WALL CLOCK TIME=        819.2 SECONDS, CPU UTILIZATION IS    96.51%
               1080583  WORDS OF DYNAMIC MEMORY USED
 EXECUTION OF GAMESS TERMINATED NORMALLY Tue Oct  4 21:30:31 2022
 DDI: 263640 bytes (0.3 MB / 0 MWords) used by master data server.

 ----------------------------------------
 CPU timing information for all processes
 ========================================
 0: 784.102 + 6.531 = 790.633
 ----------------------------------------
 ddikick.x: exited gracefully.
----- accounting info -----
Files used on the master node chemcompute-node-1.novalocal were:
-rw-r--r--. 1 chemcomp chemcomp      985 Oct  4 21:16 /scratch/120806/460763.F05
-rw-rw-r--. 1 chemcomp chemcomp 70451200 Oct  4 21:30 /scratch/120806/460763.F10
-rw-rw-r--. 1 chemcomp chemcomp  4143136 Oct  4 21:30 /scratch/120806/460763.F22
Tue Oct  4 21:30:35 UTC 2022
0.100u 0.036s 13:42.56 0.0%	0+0k 8+208io 0pf+0w
Finishing Up...
Looking for IR data...
Looking for Raman data...
vibramans not found
Looking for thermodynamics data...
Looking for UV-Vis data...
chemcompute.org
{'UTCtimestamp': '2022-10-04T21:30:36.882504', 'cluster': 'jetstream2', 'clusterJobNumber': '120806', 'status': 'COMPLETE', 'nodeList': 'chemcompute-node-1'}
120806
